/*--------------------------------*- C++ -*----------------------------------*\
  =========                 |
  \\      /  F ield         | OpenFOAM: The Open Source CFD Toolbox
   \\    /   O peration     | Website:  https://openfoam.org
    \\  /    A nd           | Version:  9
     \\/     M anipulation  |
\*---------------------------------------------------------------------------*/
FoamFile
{
    format      ascii;
    class       surfaceScalarField;
    location    "0.11";
    object      phi;
}
// * * * * * * * * * * * * * * * * * * * * * * * * * * * * * * * * * * * * * //

dimensions      [0 3 -1 0 0 0 0];

internalField   nonuniform List<scalar> 
2700
(
-1.59572e-07
-2.76394e-08
1.8721e-07
-4.87611e-07
-4.81297e-09
3.32852e-07
-8.14648e-07
2.28705e-09
3.24751e-07
-1.06344e-06
-2.04162e-09
2.50831e-07
-1.19201e-06
-1.3907e-08
1.42483e-07
-1.16729e-06
-3.35276e-08
8.8079e-09
-9.70666e-07
-5.32498e-08
-1.43377e-07
-6.1959e-07
-6.56618e-08
-2.85414e-07
-2.13499e-07
-5.75976e-08
-3.48493e-07
-1.06297e-08
-2.0287e-07
-2.83502e-07
-4.10519e-08
2.96914e-07
-8.36287e-07
-2.64359e-08
5.74408e-07
-1.37861e-06
-1.72e-08
5.61806e-07
-1.78135e-06
-1.82367e-08
4.1894e-07
-1.97826e-06
-2.77883e-08
2.10795e-07
-1.92511e-06
-4.31779e-08
-4.35035e-08
-1.59488e-06
-5.90604e-08
-3.24417e-07
-1.01699e-06
-6.74712e-08
-5.76088e-07
-3.54368e-07
-5.73085e-08
-6.62907e-07
-1.57404e-08
-3.49257e-07
-3.14124e-07
-3.55162e-08
3.08589e-07
-9.3342e-07
-3.22975e-08
6.25157e-07
-1.53958e-06
-2.55039e-08
6.14469e-07
-1.98743e-06
-2.33722e-08
4.52984e-07
-2.20494e-06
-2.65194e-08
2.16238e-07
-2.14206e-06
-3.35329e-08
-7.25271e-08
-1.76982e-06
-4.10121e-08
-3.90289e-07
-1.12137e-06
-4.41392e-08
-6.7178e-07
-3.82951e-07
-3.69887e-08
-7.58738e-07
-1.34663e-08
-3.85225e-07
-3.15969e-07
-1.97896e-08
3.00242e-07
-9.51521e-07
-2.04731e-08
6.23728e-07
-1.57557e-06
-1.70405e-08
6.15585e-07
-2.03682e-06
-1.50309e-08
4.5291e-07
-2.26076e-06
-1.53315e-08
2.12753e-07
-2.19556e-06
-1.74182e-08
-8.13188e-08
-1.81098e-06
-1.98465e-08
-4.05739e-07
-1.14179e-06
-2.0518e-08
-6.92817e-07
-3.83429e-07
-1.71323e-08
-7.78216e-07
-7.38376e-09
-3.89512e-07
-3.14047e-07
3.74903e-12
2.94254e-07
-9.52497e-07
1.47921e-12
6.17975e-07
-1.58087e-06
1.03022e-12
6.11331e-07
-2.04587e-06
8.84393e-13
4.49972e-07
-2.27198e-06
7.02806e-13
2.10771e-07
-2.20649e-06
5.34819e-13
-8.29019e-08
-1.81872e-06
4.13715e-13
-4.07618e-07
-1.14405e-06
3.61902e-13
-6.95192e-07
-3.81194e-07
3.9384e-13
-7.79988e-07
-5.28245e-14
-3.88578e-07
-3.14048e-07
1.97975e-08
2.94254e-07
-9.52497e-07
2.04761e-08
6.17975e-07
-1.58087e-06
1.70427e-08
6.11331e-07
-2.04587e-06
1.50328e-08
4.49972e-07
-2.27198e-06
1.53329e-08
2.1077e-07
-2.20649e-06
1.74193e-08
-8.29021e-08
-1.81872e-06
1.98473e-08
-4.07618e-07
-1.14405e-06
2.05187e-08
-6.95192e-07
-3.81194e-07
1.71331e-08
-7.79988e-07
7.38365e-09
-3.88578e-07
-3.1597e-07
3.5525e-08
3.00242e-07
-9.51522e-07
3.23e-08
6.23728e-07
-1.57557e-06
2.55063e-08
6.15585e-07
-2.03682e-06
2.33743e-08
4.52909e-07
-2.26076e-06
2.65211e-08
2.12752e-07
-2.19556e-06
3.35341e-08
-8.13193e-08
-1.81098e-06
4.10129e-08
-4.05739e-07
-1.14179e-06
4.414e-08
-6.92817e-07
-3.83429e-07
3.69895e-08
-7.78216e-07
1.34661e-08
-3.89512e-07
-3.14125e-07
4.10617e-08
3.08589e-07
-9.33421e-07
2.64355e-08
6.2516e-07
-1.53959e-06
1.72023e-08
6.14469e-07
-1.98743e-06
1.82389e-08
4.52984e-07
-2.20494e-06
2.77901e-08
2.16238e-07
-2.14206e-06
4.31792e-08
-7.25278e-08
-1.76982e-06
5.90613e-08
-3.90289e-07
-1.12137e-06
6.7472e-08
-6.7178e-07
-3.82951e-07
5.73094e-08
-7.58739e-07
1.57403e-08
-3.85226e-07
-2.83498e-07
2.76402e-08
2.96919e-07
-8.36286e-07
4.80845e-09
5.74415e-07
-1.37861e-06
-2.28543e-09
5.61809e-07
-1.78135e-06
2.04296e-09
4.1894e-07
-1.97826e-06
1.39085e-08
2.10795e-07
-1.92511e-06
3.35288e-08
-4.3504e-08
-1.59488e-06
5.32504e-08
-3.24417e-07
-1.01699e-06
6.56622e-08
-5.76088e-07
-3.54367e-07
5.75985e-08
-6.62908e-07
1.06301e-08
-3.49257e-07
-1.59572e-07
1.87212e-07
-4.8762e-07
3.32857e-07
-8.14655e-07
3.2475e-07
-1.06344e-06
2.5083e-07
-1.19202e-06
1.42483e-07
-1.1673e-06
8.8075e-09
-9.70668e-07
-1.43378e-07
-6.19592e-07
-2.85415e-07
-2.135e-07
-3.48494e-07
-2.0287e-07
-3.22499e-07
-8.29009e-08
5.9261e-07
-8.8155e-07
-6.0723e-08
9.52627e-07
-1.42192e-06
-4.42808e-08
9.09401e-07
-1.82781e-06
-3.70696e-08
6.93791e-07
-2.03415e-06
-3.7885e-08
3.8671e-07
-1.99608e-06
-4.56324e-08
1.63741e-08
-1.67813e-06
-5.51486e-08
-4.06188e-07
-1.10472e-06
-5.87078e-08
-8.00108e-07
-4.2003e-07
-3.98922e-08
-9.93295e-07
2.1804e-08
-6.44703e-07
-6.24637e-07
-9.59785e-08
9.34629e-07
-1.63791e-06
-8.75084e-08
1.61447e-06
-2.59639e-06
-6.85973e-08
1.54461e-06
-3.29627e-06
-5.68062e-08
1.13856e-06
-3.63131e-06
-5.40646e-08
5.62017e-07
-3.5328e-06
-5.93104e-08
-1.28343e-07
-2.95642e-06
-6.69964e-08
-8.88941e-07
-1.9479e-06
-6.77913e-08
-1.57553e-06
-7.55187e-07
-4.70306e-08
-1.84848e-06
9.09193e-09
-1.09173e-06
-7.11345e-07
-7.1148e-08
9.95103e-07
-1.86796e-06
-7.45346e-08
1.7688e-06
-2.95759e-06
-6.10314e-08
1.69653e-06
-3.74749e-06
-5.01287e-08
1.2362e-06
-4.11961e-06
-4.53628e-08
5.79659e-07
-3.99862e-06
-4.62258e-08
-2.06602e-07
-3.3378e-06
-4.90771e-08
-1.06903e-06
-2.19029e-06
-4.76436e-08
-1.83944e-06
-8.41349e-07
-3.4066e-08
-2.12065e-06
-2.03021e-09
-1.21545e-06
-7.23803e-07
-3.6432e-08
9.8933e-07
-1.91558e-06
-4.11573e-08
1.78213e-06
-3.04034e-06
-3.4529e-08
1.71384e-06
-3.85545e-06
-2.82143e-08
1.24611e-06
-4.23884e-06
-2.47273e-08
5.755e-07
-4.11263e-06
-2.39746e-08
-2.29778e-07
-3.42853e-06
-2.43352e-08
-1.11458e-06
-2.24214e-06
-2.29825e-08
-1.90386e-06
-8.52859e-07
-1.68398e-08
-2.18473e-06
-3.77846e-09
-1.24062e-06
-7.22189e-07
1.65616e-12
9.80009e-07
-1.92016e-06
-1.77907e-12
1.77479e-06
-3.05285e-06
-1.38447e-12
1.7095e-06
-3.87448e-06
-4.79331e-13
1.2434e-06
-4.26143e-06
-8.65883e-14
5.72988e-07
-4.13471e-06
9.8615e-14
-2.33594e-07
-3.4452e-06
1.79299e-13
-1.12147e-06
-2.24938e-06
3.95715e-13
-1.91399e-06
-8.51399e-07
7.16987e-13
-2.19481e-06
3.95824e-13
-1.24376e-06
-7.22189e-07
3.64351e-08
9.80009e-07
-1.92015e-06
4.11534e-08
1.77479e-06
-3.05285e-06
3.45262e-08
1.7095e-06
-3.87448e-06
2.82134e-08
1.24339e-06
-4.26143e-06
2.47272e-08
5.72988e-07
-4.13471e-06
2.39748e-08
-2.33594e-07
-3.4452e-06
2.43356e-08
-1.12147e-06
-2.24938e-06
2.29834e-08
-1.91399e-06
-8.51399e-07
1.68414e-08
-2.19481e-06
3.77928e-09
-1.24376e-06
-7.23803e-07
7.11506e-08
9.89329e-07
-1.91558e-06
7.45297e-08
1.78213e-06
-3.04034e-06
6.10285e-08
1.71384e-06
-3.85545e-06
5.01279e-08
1.24611e-06
-4.23884e-06
4.53629e-08
5.75499e-07
-4.11263e-06
4.62262e-08
-2.29778e-07
-3.42852e-06
4.90776e-08
-1.11458e-06
-2.24214e-06
4.76446e-08
-1.90386e-06
-8.52858e-07
3.40677e-08
-2.18473e-06
2.03105e-09
-1.24062e-06
-7.11342e-07
9.59784e-08
9.95103e-07
-1.86796e-06
8.75019e-08
1.7688e-06
-2.95759e-06
6.85944e-08
1.69654e-06
-3.74749e-06
5.68058e-08
1.2362e-06
-4.11961e-06
5.40651e-08
5.79658e-07
-3.99862e-06
5.93111e-08
-2.06603e-07
-3.3378e-06
6.69972e-08
-1.06903e-06
-2.19029e-06
6.77926e-08
-1.83944e-06
-8.41348e-07
4.70327e-08
-2.12065e-06
-9.09096e-09
-1.21545e-06
-6.24631e-07
8.28963e-08
9.34632e-07
-1.6379e-06
6.0717e-08
1.61447e-06
-2.59639e-06
4.42793e-08
1.54461e-06
-3.29627e-06
3.70701e-08
1.13856e-06
-3.63131e-06
3.78862e-08
5.62017e-07
-3.53279e-06
4.56334e-08
-1.28343e-07
-2.95642e-06
5.51496e-08
-8.88941e-07
-1.9479e-06
5.87092e-08
-1.57553e-06
-7.55185e-07
3.98944e-08
-1.84848e-06
-2.18028e-08
-1.09173e-06
-3.22494e-07
5.92602e-07
-8.81549e-07
9.52629e-07
-1.42192e-06
9.09401e-07
-1.82781e-06
6.9379e-07
-2.03415e-06
3.8671e-07
-1.99608e-06
1.63742e-08
-1.67813e-06
-4.06187e-07
-1.10472e-06
-8.00108e-07
-4.20029e-07
-9.93294e-07
-6.44701e-07
-4.25961e-07
-1.28675e-07
1.14725e-06
-1.13469e-06
-1.07725e-07
1.76908e-06
-1.80813e-06
-8.39992e-08
1.66684e-06
-2.31848e-06
-6.71882e-08
1.27132e-06
-2.59724e-06
-5.86009e-08
7.24074e-07
-2.58615e-06
-5.90114e-08
6.43004e-08
-2.22873e-06
-6.50233e-08
-6.9859e-07
-1.51925e-06
-6.5827e-08
-1.44376e-06
-6.09743e-07
-3.9564e-08
-1.86324e-06
4.01192e-08
-1.29456e-06
-8.43536e-07
-1.45309e-07
1.7948e-06
-2.15612e-06
-1.42122e-07
2.96145e-06
-3.37524e-06
-1.13865e-07
2.79359e-06
-4.27012e-06
-8.96771e-08
2.05592e-06
-4.72767e-06
-7.51667e-08
1.03613e-06
-4.66115e-06
-7.14086e-08
-1.82459e-07
-3.98922e-06
-7.37923e-08
-1.55211e-06
-2.71501e-06
-7.11134e-08
-2.84445e-06
-1.1059e-06
-4.37574e-08
-3.4534e-06
2.4507e-08
-2.18202e-06
-9.66331e-07
-1.04426e-07
1.92055e-06
-2.47281e-06
-1.136e-07
3.24676e-06
-3.86602e-06
-9.29022e-08
3.06878e-06
-4.88049e-06
-7.21223e-08
2.23313e-06
-5.39048e-06
-5.8018e-08
1.0725e-06
-5.30131e-06
-5.16369e-08
-3.15539e-07
-4.52493e-06
-5.00154e-08
-1.86919e-06
-3.06759e-06
-4.60544e-08
-3.32183e-06
-1.23928e-06
-2.93092e-08
-3.9634e-06
6.69967e-09
-2.43693e-06
-9.84507e-07
-5.21415e-08
1.92155e-06
-2.5378e-06
-6.02622e-08
3.28209e-06
-3.97686e-06
-4.99324e-08
3.10992e-06
-5.02454e-06
-3.83948e-08
2.26006e-06
-5.55069e-06
-2.99526e-08
1.07359e-06
-5.45743e-06
-2.53324e-08
-3.49339e-07
-4.65346e-06
-2.33044e-08
-1.94527e-06
-3.14586e-06
-2.07379e-08
-3.43678e-06
-1.26072e-06
-1.36281e-08
-4.08555e-06
2.82267e-10
-2.49492e-06
-9.82298e-07
1.27932e-12
1.91016e-06
-2.54321e-06
-1.62388e-12
3.27544e-06
-3.99215e-06
-1.02079e-12
3.1085e-06
-5.04822e-06
-9.25942e-14
2.26107e-06
-5.57951e-06
1.744e-13
1.07433e-06
-5.48672e-06
1.522e-13
-3.51717e-07
-4.67713e-06
1.65558e-13
-1.95437e-06
-3.15801e-06
2.5931e-13
-3.45384e-06
-1.2609e-06
3.3472e-13
-4.10555e-06
3.47555e-13
-2.50438e-06
-9.82298e-07
5.21442e-08
1.91016e-06
-2.54321e-06
6.02588e-08
3.27544e-06
-3.99215e-06
4.99302e-08
3.1085e-06
-5.04822e-06
3.83946e-08
2.26107e-06
-5.57951e-06
2.99528e-08
1.07433e-06
-5.48672e-06
2.53326e-08
-3.51718e-07
-4.67713e-06
2.33047e-08
-1.95437e-06
-3.15801e-06
2.07385e-08
-3.45384e-06
-1.2609e-06
1.36289e-08
-4.10555e-06
-2.81751e-10
-2.50438e-06
-9.84507e-07
1.04429e-07
1.92155e-06
-2.5378e-06
1.13596e-07
3.28209e-06
-3.97686e-06
9.29e-08
3.10992e-06
-5.02454e-06
7.21219e-08
2.26006e-06
-5.55069e-06
5.80181e-08
1.07358e-06
-5.45743e-06
5.16368e-08
-3.4934e-07
-4.65346e-06
5.00155e-08
-1.94527e-06
-3.14586e-06
4.60549e-08
-3.43678e-06
-1.26072e-06
2.93099e-08
-4.08555e-06
-6.69928e-09
-2.49492e-06
-9.6633e-07
1.45311e-07
1.92055e-06
-2.47281e-06
1.42118e-07
3.24676e-06
-3.86602e-06
1.13863e-07
3.06878e-06
-4.88049e-06
8.96769e-08
2.23313e-06
-5.39048e-06
7.51668e-08
1.07249e-06
-5.30131e-06
7.14086e-08
-3.1554e-07
-4.52493e-06
7.37924e-08
-1.86919e-06
-3.06759e-06
7.1114e-08
-3.32183e-06
-1.23928e-06
4.37582e-08
-3.9634e-06
-2.45067e-08
-2.43693e-06
-8.43533e-07
1.28676e-07
1.7948e-06
-2.15612e-06
1.07721e-07
2.96146e-06
-3.37524e-06
8.3998e-08
2.79359e-06
-4.27012e-06
6.71887e-08
2.05592e-06
-4.72767e-06
5.86016e-08
1.03613e-06
-4.66115e-06
5.90118e-08
-1.8246e-07
-3.98922e-06
6.50238e-08
-1.55211e-06
-2.71501e-06
6.58278e-08
-2.84445e-06
-1.1059e-06
3.9565e-08
-3.4534e-06
-4.0119e-08
-2.18202e-06
-4.25962e-07
1.14724e-06
-1.13469e-06
1.76908e-06
-1.80814e-06
1.66684e-06
-2.31848e-06
1.27132e-06
-2.59724e-06
7.24074e-07
-2.58615e-06
6.43005e-08
-2.22873e-06
-6.98589e-07
-1.51925e-06
-1.44375e-06
-6.09743e-07
-1.86324e-06
-1.29456e-06
-5.58057e-07
-1.83063e-07
1.88837e-06
-1.44484e-06
-1.60677e-07
2.81654e-06
-2.27112e-06
-1.26714e-07
2.61984e-06
-2.90941e-06
-9.8645e-08
2.00825e-06
-3.29856e-06
-8.05219e-08
1.19375e-06
-3.36931e-06
-7.44421e-08
2.0949e-07
-3.02229e-06
-8.08452e-08
-9.64761e-07
-2.17604e-06
-8.45924e-08
-2.20542e-06
-9.4977e-07
-5.41089e-08
-3.0354e-06
4.75497e-08
-2.29188e-06
-1.10319e-06
-2.05315e-07
2.92024e-06
-2.75519e-06
-2.05653e-07
4.65843e-06
-4.26223e-06
-1.63331e-07
4.33725e-06
-5.3883e-06
-1.2239e-07
3.20573e-06
-6.03176e-06
-9.31484e-08
1.69222e-06
-6.09357e-06
-7.90458e-08
-1.16047e-07
-5.41559e-06
-7.84235e-08
-2.23251e-06
-3.88214e-06
-7.78389e-08
-4.38465e-06
-1.70565e-06
-4.94646e-08
-5.63453e-06
3.07241e-08
-3.87085e-06
-1.26135e-06
-1.45759e-07
3.12234e-06
-3.1579e-06
-1.59888e-07
5.09755e-06
-4.88259e-06
-1.27682e-07
4.75781e-06
-6.1617e-06
-9.24315e-08
3.48228e-06
-6.88206e-06
-6.52021e-08
1.76491e-06
-6.93608e-06
-4.92153e-08
-2.91347e-07
-6.14877e-06
-4.35493e-08
-2.69138e-06
-4.3927e-06
-4.05606e-08
-5.11517e-06
-1.91664e-06
-2.56168e-08
-6.46331e-06
1.13254e-08
-4.33417e-06
-1.28272e-06
-7.19242e-08
3.13044e-06
-3.23623e-06
-8.31316e-08
5.15885e-06
-5.0172e-06
-6.66642e-08
4.82987e-06
-6.33883e-06
-4.71434e-08
3.53641e-06
-7.08344e-06
-3.13846e-08
1.78437e-06
-7.13988e-06
-2.13721e-08
-3.20737e-07
-6.32669e-06
-1.67094e-08
-2.7853e-06
-4.51171e-06
-1.44938e-08
-5.27783e-06
-1.95772e-06
-9.12615e-09
-6.65602e-06
2.85147e-09
-4.44417e-06
-1.27847e-06
1.05607e-12
3.11671e-06
-3.24e-06
-1.0851e-12
5.15384e-06
-5.03248e-06
-5.20152e-13
4.83432e-06
-6.36479e-06
1.64719e-13
3.54624e-06
-7.11729e-06
1.20712e-13
1.79544e-06
-7.17703e-06
-1.72378e-13
-3.1335e-07
-6.36032e-06
-4.10425e-13
-2.78779e-06
-4.533e-06
-6.55523e-13
-5.29565e-06
-1.96253e-06
-6.77864e-13
-6.68514e-06
2.00911e-14
-4.46406e-06
-1.27847e-06
7.19263e-08
3.11671e-06
-3.24e-06
8.31294e-08
5.15384e-06
-5.03248e-06
6.6663e-08
4.83432e-06
-6.36479e-06
4.71436e-08
3.54624e-06
-7.11729e-06
3.13847e-08
1.79544e-06
-7.17703e-06
2.13717e-08
-3.1335e-07
-6.36032e-06
1.67086e-08
-2.78779e-06
-4.533e-06
1.44926e-08
-5.29565e-06
-1.96253e-06
9.12482e-09
-6.68514e-06
-2.85154e-09
-4.46406e-06
-1.28272e-06
1.45761e-07
3.13044e-06
-3.23623e-06
1.59885e-07
5.15885e-06
-5.0172e-06
1.27681e-07
4.82987e-06
-6.33883e-06
9.24313e-08
3.53641e-06
-7.08344e-06
6.52016e-08
1.78437e-06
-7.13988e-06
4.92142e-08
-3.20737e-07
-6.32669e-06
4.35481e-08
-2.7853e-06
-4.51171e-06
4.05593e-08
-5.27783e-06
-1.95772e-06
2.56155e-08
-6.65602e-06
-1.13257e-08
-4.44417e-06
-1.26135e-06
2.05316e-07
3.12234e-06
-3.1579e-06
2.0565e-07
5.09755e-06
-4.88259e-06
1.63329e-07
4.75782e-06
-6.1617e-06
1.22389e-07
3.48228e-06
-6.88206e-06
9.31477e-08
1.76491e-06
-6.93608e-06
7.90444e-08
-2.91348e-07
-6.14877e-06
7.84221e-08
-2.69138e-06
-4.3927e-06
7.78376e-08
-5.11517e-06
-1.91664e-06
4.94634e-08
-6.46331e-06
-3.07248e-08
-4.33417e-06
-1.10319e-06
1.83063e-07
2.92024e-06
-2.75519e-06
1.60675e-07
4.65843e-06
-4.26223e-06
1.26713e-07
4.33725e-06
-5.3883e-06
9.86452e-08
3.20573e-06
-6.03176e-06
8.05216e-08
1.69222e-06
-6.09357e-06
7.4441e-08
-1.16048e-07
-5.41559e-06
8.08437e-08
-2.23251e-06
-3.88214e-06
8.45909e-08
-4.38465e-06
-1.70565e-06
5.41073e-08
-5.63453e-06
-4.75508e-08
-3.87085e-06
-5.58057e-07
1.88836e-06
-1.44484e-06
2.81654e-06
-2.27112e-06
2.61984e-06
-2.90941e-06
2.00825e-06
-3.29856e-06
1.19375e-06
-3.36931e-06
2.0949e-07
-3.02229e-06
-9.64761e-07
-2.17604e-06
-2.20542e-06
-9.49771e-07
-3.0354e-06
-2.29189e-06
-7.8016e-07
-2.59713e-07
2.92824e-06
-1.91173e-06
-2.30316e-07
4.17842e-06
-2.92688e-06
-1.75556e-07
3.81055e-06
-3.72625e-06
-1.25602e-07
2.93322e-06
-4.27904e-06
-8.87759e-08
1.83532e-06
-4.5141e-06
-6.91152e-08
5.1366e-07
-4.27279e-06
-7.33607e-08
-1.13271e-06
-3.32325e-06
-8.65625e-08
-3.0684e-06
-1.63763e-06
-6.56722e-08
-4.65535e-06
3.64318e-08
-3.96594e-06
-1.51238e-06
-2.87172e-07
4.46008e-06
-3.6235e-06
-2.86473e-07
6.82571e-06
-5.48772e-06
-2.16803e-07
6.24271e-06
-6.90604e-06
-1.4487e-07
4.64333e-06
-7.82519e-06
-8.77922e-08
2.61038e-06
-8.15221e-06
-5.08859e-08
1.92751e-07
-7.62226e-06
-4.60764e-08
-2.78976e-06
-5.87997e-06
-5.45092e-08
-6.15899e-06
-2.88744e-06
-4.31072e-08
-8.64963e-06
2.22173e-08
-6.74407e-06
-1.71663e-06
-2.00676e-07
4.75248e-06
-4.13577e-06
-2.17295e-07
7.44751e-06
-6.27124e-06
-1.63475e-07
6.83995e-06
-7.8856e-06
-1.02458e-07
5.05423e-06
-8.91612e-06
-5.19292e-08
2.75957e-06
-9.27461e-06
-1.829e-08
3.45397e-08
-8.64851e-06
-6.12212e-09
-3.35743e-06
-6.65279e-06
-8.77983e-09
-7.15663e-06
-3.24974e-06
-9.34701e-09
-9.90012e-06
9.4728e-09
-7.57116e-06
-1.73964e-06
-9.77709e-08
4.76717e-06
-4.22639e-06
-1.11037e-07
7.53934e-06
-6.43044e-06
-8.33144e-08
6.95375e-06
-8.09965e-06
-4.99844e-08
5.15315e-06
-9.16681e-06
-2.16266e-08
2.82124e-06
-9.54274e-06
-2.91327e-09
3.98142e-08
-8.90167e-06
6.87109e-09
-3.43936e-06
-6.8445e-06
6.42428e-09
-7.35021e-06
-3.33516e-06
3.01298e-09
-1.01777e-05
3.72029e-09
-7.77358e-06
-1.73131e-06
7.14531e-13
4.75026e-06
-4.22527e-06
-7.84272e-13
7.53675e-06
-6.44242e-06
-3.74364e-13
6.96817e-06
-8.12556e-06
-1.99562e-14
5.17939e-06
-9.20537e-06
-2.75331e-13
2.85363e-06
-9.59031e-06
-5.99647e-13
6.86702e-08
-8.95193e-06
-7.09986e-13
-3.4193e-06
-6.88475e-06
-7.32892e-13
-7.35641e-06
-3.35286e-06
-2.19234e-13
-1.0214e-05
2.54614e-13
-7.81319e-06
-1.73131e-06
9.77723e-08
4.75025e-06
-4.22527e-06
1.11036e-07
7.53675e-06
-6.44242e-06
8.33136e-08
6.96817e-06
-8.12556e-06
4.99843e-08
5.17939e-06
-9.20537e-06
2.16259e-08
2.85363e-06
-9.59031e-06
2.91202e-09
6.86701e-08
-8.95193e-06
-6.8724e-09
-3.4193e-06
-6.88475e-06
-6.42561e-09
-7.35641e-06
-3.35286e-06
-3.01357e-09
-1.0214e-05
-3.72005e-09
-7.81319e-06
-1.73964e-06
2.00677e-07
4.76717e-06
-4.22639e-06
2.17294e-07
7.53934e-06
-6.43044e-06
1.63475e-07
6.95375e-06
-8.09965e-06
1.02458e-07
5.15314e-06
-9.16681e-06
5.19281e-08
2.82124e-06
-9.54274e-06
1.82884e-08
3.98141e-08
-8.90167e-06
6.12081e-09
-3.43936e-06
-6.8445e-06
8.77874e-09
-7.35021e-06
-3.33516e-06
9.34645e-09
-1.01777e-05
-9.47261e-09
-7.77358e-06
-1.71663e-06
2.87173e-07
4.75248e-06
-4.13577e-06
2.86472e-07
7.44751e-06
-6.27124e-06
2.16802e-07
6.83996e-06
-7.8856e-06
1.4487e-07
5.05423e-06
-8.91612e-06
8.77908e-08
2.75957e-06
-9.27461e-06
5.08839e-08
3.45396e-08
-8.64851e-06
4.60752e-08
-3.35743e-06
-6.65279e-06
5.45087e-08
-7.15663e-06
-3.24974e-06
4.31073e-08
-9.90012e-06
-2.2217e-08
-7.57116e-06
-1.51237e-06
2.59713e-07
4.46008e-06
-3.6235e-06
2.30315e-07
6.82572e-06
-5.48772e-06
1.75556e-07
6.24271e-06
-6.90604e-06
1.25602e-07
4.64333e-06
-7.82519e-06
8.87748e-08
2.61038e-06
-8.15221e-06
6.9113e-08
1.9275e-07
-7.62226e-06
7.33591e-08
-2.78976e-06
-5.87997e-06
8.6562e-08
-6.15899e-06
-2.88744e-06
6.56727e-08
-8.64963e-06
-3.64312e-08
-6.74407e-06
-7.80159e-07
2.92823e-06
-1.91173e-06
4.17842e-06
-2.92688e-06
3.81054e-06
-3.72625e-06
2.93322e-06
-4.27904e-06
1.83532e-06
-4.5141e-06
5.13659e-07
-4.27279e-06
-1.13271e-06
-3.32325e-06
-3.0684e-06
-1.63762e-06
-4.65535e-06
-3.96594e-06
-1.1758e-06
-3.72279e-07
4.47631e-06
-2.61557e-06
-3.19768e-07
5.93797e-06
-3.81122e-06
-2.16455e-07
5.22265e-06
-4.76075e-06
-1.17174e-07
3.99992e-06
-5.50922e-06
-3.76485e-08
2.62144e-06
-6.01481e-06
1.50351e-08
1.00422e-06
-6.06661e-06
3.8217e-08
-1.11913e-06
-5.18815e-06
1.96196e-08
-3.96647e-06
-2.97231e-06
-7.9929e-09
-6.8632e-06
-1.04411e-08
-6.92781e-06
-2.18909e-06
-4.01503e-07
6.67839e-06
-4.88262e-06
-3.8635e-07
9.58582e-06
-7.10759e-06
-2.59016e-07
8.51024e-06
-8.80299e-06
-1.24324e-07
6.34588e-06
-1.00417e-05
-1.32493e-08
3.82465e-06
-1.07598e-05
6.47573e-08
8.61151e-07
-1.06505e-05
1.08559e-07
-2.96936e-06
-8.95197e-06
9.12379e-08
-7.92915e-06
-5.02011e-06
3.77649e-08
-1.26272e-05
-1.20246e-08
-1.17626e-05
-2.45258e-06
-2.74188e-07
7.07774e-06
-5.53081e-06
-2.86102e-07
1.04255e-05
-8.0861e-06
-1.90307e-07
9.32654e-06
-1.00214e-05
-8.15956e-08
6.94684e-06
-1.14141e-05
1.15058e-08
4.1275e-06
-1.21884e-05
8.08013e-08
7.92819e-07
-1.20221e-05
1.18014e-07
-3.53326e-06
-1.00639e-05
1.07558e-07
-9.13111e-06
-5.60701e-06
5.79755e-08
-1.43772e-05
-3.55058e-09
-1.31866e-05
-2.47319e-06
-1.31397e-07
7.09757e-06
-5.62837e-06
-1.43863e-07
1.05523e-05
-8.26523e-06
-9.54367e-08
9.49574e-06
-1.02696e-05
-3.78331e-08
7.11374e-06
-1.17155e-05
1.28608e-08
4.26582e-06
-1.25223e-05
5.15389e-08
8.7588e-07
-1.23644e-05
7.12271e-08
-3.5505e-06
-1.03564e-05
6.61196e-08
-9.31678e-06
-5.76752e-06
3.84579e-08
-1.47471e-05
1.2661e-09
-1.35459e-05
-2.4572e-06
4.16864e-13
7.07606e-06
-5.6164e-06
-4.23981e-13
1.05521e-05
-8.26766e-06
-2.03566e-13
9.52399e-06
-1.02901e-05
-1.03553e-13
7.16401e-06
-1.17546e-05
-4.1035e-13
4.33098e-06
-1.25805e-05
-4.14452e-13
9.46086e-07
-1.24373e-05
8.98757e-14
-3.49121e-06
-1.04286e-05
4.58728e-13
-9.29899e-06
-5.8123e-06
5.52197e-13
-1.47919e-05
4.01398e-13
-1.36242e-05
-2.4572e-06
1.31398e-07
7.07606e-06
-5.6164e-06
1.43862e-07
1.05521e-05
-8.26766e-06
9.54363e-08
9.52399e-06
-1.02901e-05
3.7833e-08
7.16401e-06
-1.17546e-05
-1.28616e-08
4.33098e-06
-1.25805e-05
-5.15395e-08
9.46086e-07
-1.24373e-05
-7.12268e-08
-3.49121e-06
-1.04286e-05
-6.61188e-08
-9.29899e-06
-5.8123e-06
-3.8457e-08
-1.47919e-05
-1.26531e-09
-1.36242e-05
-2.47319e-06
2.74189e-07
7.09757e-06
-5.62837e-06
2.86101e-07
1.05523e-05
-8.26523e-06
1.90307e-07
9.49574e-06
-1.02696e-05
8.15952e-08
7.11374e-06
-1.17155e-05
-1.15068e-08
4.26582e-06
-1.25223e-05
-8.08021e-08
8.7588e-07
-1.23644e-05
-1.18013e-07
-3.5505e-06
-1.03564e-05
-1.07556e-07
-9.31678e-06
-5.76752e-06
-5.79742e-08
-1.47471e-05
3.55129e-09
-1.35459e-05
-2.45257e-06
4.01504e-07
7.07774e-06
-5.53081e-06
3.86351e-07
1.04255e-05
-8.0861e-06
2.59016e-07
9.32654e-06
-1.00214e-05
1.24323e-07
6.94683e-06
-1.14141e-05
1.3248e-08
4.1275e-06
-1.21884e-05
-6.47584e-08
7.9282e-07
-1.20221e-05
-1.08558e-07
-3.53326e-06
-1.00639e-05
-9.12358e-08
-9.13111e-06
-5.60701e-06
-3.77629e-08
-1.43772e-05
1.20251e-08
-1.31866e-05
-2.18909e-06
3.7228e-07
6.67839e-06
-4.88262e-06
3.19769e-07
9.58583e-06
-7.10759e-06
2.16456e-07
8.51024e-06
-8.80299e-06
1.17174e-07
6.34588e-06
-1.00417e-05
3.76471e-08
3.82464e-06
-1.07598e-05
-1.50363e-08
8.61152e-07
-1.06505e-05
-3.82162e-08
-2.96936e-06
-8.95197e-06
-1.96172e-08
-7.92915e-06
-5.02011e-06
7.99695e-09
-1.26272e-05
1.04418e-08
-1.17626e-05
-1.1758e-06
4.47631e-06
-2.61557e-06
5.93797e-06
-3.81122e-06
5.22265e-06
-4.76075e-06
3.99992e-06
-5.50922e-06
2.62143e-06
-6.01481e-06
1.00422e-06
-6.06661e-06
-1.11913e-06
-5.18815e-06
-3.96647e-06
-2.97231e-06
-6.86319e-06
-6.92781e-06
-1.92755e-06
-5.38634e-07
6.94249e-06
-3.61772e-06
-4.26451e-07
8.0546e-06
-4.79952e-06
-2.10876e-07
6.61533e-06
-5.72108e-06
-5.19867e-09
4.92668e-06
-6.56269e-06
1.64871e-07
3.29817e-06
-7.37855e-06
3.12483e-07
1.5076e-06
-7.96274e-06
4.29433e-07
-9.6438e-07
-7.55358e-06
4.27028e-07
-4.80266e-06
-5.05301e-06
2.68281e-07
-9.63205e-06
-6.11587e-08
-1.19197e-05
-3.34316e-06
-5.61279e-07
1.00442e-05
-6.56721e-06
-5.02873e-07
1.28863e-05
-8.84457e-06
-2.57356e-07
1.08341e-05
-1.04769e-05
-2.02313e-09
7.97505e-06
-1.17678e-05
2.1933e-07
5.06103e-06
-1.28073e-05
4.06509e-07
1.80661e-06
-1.33021e-05
5.42672e-07
-2.58775e-06
-1.21606e-05
5.36845e-07
-9.18049e-06
-7.7956e-06
3.34898e-07
-1.70588e-05
-5.78353e-08
-1.95615e-05
-3.67119e-06
-3.72124e-07
1.05598e-05
-7.35186e-06
-3.65307e-07
1.39686e-05
-9.98976e-06
-1.92417e-07
1.18995e-05
-1.18563e-05
-2.30048e-10
8.81155e-06
-1.32733e-05
1.71341e-07
5.59253e-06
-1.43427e-05
3.13306e-07
1.9554e-06
-1.47678e-05
4.05878e-07
-2.97134e-06
-1.3376e-05
3.9369e-07
-1.03798e-05
-8.47472e-06
2.40549e-07
-1.91842e-05
-2.69802e-08
-2.16922e-05
-3.67951e-06
-1.74805e-07
1.05798e-05
-7.43854e-06
-1.81533e-07
1.41275e-05
-1.01645e-05
-9.76934e-08
1.2127e-05
-1.21039e-05
-2.53075e-10
9.05322e-06
-1.35746e-05
8.82845e-08
5.81952e-06
-1.46828e-05
1.60388e-07
2.13699e-06
-1.51338e-05
2.036e-07
-2.89724e-06
-1.37196e-05
1.94339e-07
-1.05316e-05
-8.69613e-06
1.18227e-07
-1.96482e-05
-6.61554e-09
-2.22624e-05
-3.65017e-06
8.94643e-14
1.05514e-05
-7.40559e-06
-2.40648e-13
1.4126e-05
-1.01457e-05
-4.4063e-13
1.21664e-05
-1.21067e-05
-6.91884e-13
9.12475e-06
-1.36016e-05
-8.27708e-13
5.91415e-06
-1.47386e-05
-2.01843e-13
2.2435e-06
-1.52215e-05
5.11145e-13
-2.8047e-06
-1.38255e-05
1.55093e-13
-1.05007e-05
-8.77726e-06
-1.26807e-12
-1.97219e-05
2.77502e-13
-2.24081e-05
-3.65017e-06
1.74805e-07
1.05514e-05
-7.40559e-06
1.81533e-07
1.4126e-05
-1.01457e-05
9.76925e-08
1.21664e-05
-1.21067e-05
2.51516e-10
9.12475e-06
-1.36016e-05
-8.8286e-08
5.91415e-06
-1.47386e-05
-1.60389e-07
2.2435e-06
-1.52215e-05
-2.03599e-07
-2.8047e-06
-1.38255e-05
-1.94339e-07
-1.05007e-05
-8.77726e-06
-1.18229e-07
-1.97219e-05
6.6159e-09
-2.24081e-05
-3.67951e-06
3.72125e-07
1.05798e-05
-7.43855e-06
3.65306e-07
1.41275e-05
-1.01645e-05
1.92416e-07
1.2127e-05
-1.21039e-05
2.28118e-10
9.05322e-06
-1.35746e-05
-1.71343e-07
5.81953e-06
-1.46828e-05
-3.13307e-07
2.137e-06
-1.51338e-05
-4.05877e-07
-2.89724e-06
-1.37196e-05
-3.9369e-07
-1.05316e-05
-8.69614e-06
-2.4055e-07
-1.96482e-05
2.69794e-08
-2.22624e-05
-3.67119e-06
5.61279e-07
1.05598e-05
-7.35186e-06
5.02874e-07
1.39686e-05
-9.98976e-06
2.57355e-07
1.18995e-05
-1.18563e-05
2.02108e-09
8.81155e-06
-1.32733e-05
-2.19332e-07
5.59254e-06
-1.43427e-05
-4.0651e-07
1.9554e-06
-1.47678e-05
-5.4267e-07
-2.97134e-06
-1.3376e-05
-5.36844e-07
-1.03798e-05
-8.47472e-06
-3.34899e-07
-1.91842e-05
5.78339e-08
-2.16922e-05
-3.34316e-06
5.38635e-07
1.00442e-05
-6.56721e-06
4.26453e-07
1.28863e-05
-8.84457e-06
2.10877e-07
1.08341e-05
-1.04769e-05
5.19671e-09
7.97505e-06
-1.17678e-05
-1.64874e-07
5.06103e-06
-1.28073e-05
-3.12484e-07
1.80662e-06
-1.33021e-05
-4.29431e-07
-2.58775e-06
-1.21606e-05
-4.27026e-07
-9.18049e-06
-7.7956e-06
-2.68282e-07
-1.70588e-05
6.11574e-08
-1.95615e-05
-1.92755e-06
6.94249e-06
-3.61772e-06
8.0546e-06
-4.79952e-06
6.61532e-06
-5.72108e-06
4.92668e-06
-6.56269e-06
3.29817e-06
-7.37856e-06
1.5076e-06
-7.96274e-06
-9.64382e-07
-7.55358e-06
-4.80266e-06
-5.05301e-06
-9.63204e-06
-1.19197e-05
-3.33567e-06
-7.59461e-07
1.10376e-05
-4.55446e-06
-5.36343e-07
9.80973e-06
-4.9465e-06
-1.15778e-07
7.12314e-06
-5.2226e-06
2.54848e-07
4.94793e-06
-5.71265e-06
5.63229e-07
3.22499e-06
-6.57543e-06
8.68688e-07
1.50169e-06
-7.75871e-06
1.18139e-06
-9.62488e-07
-8.37788e-06
1.27587e-06
-5.45935e-06
-6.77958e-06
9.3792e-07
-1.21683e-05
-2.20899e-07
-1.84783e-05
-5.402e-06
-7.71454e-07
1.54582e-05
-8.04337e-06
-6.37471e-07
1.56288e-05
-9.01545e-06
-1.95165e-07
1.18855e-05
-9.38552e-06
2.36795e-07
8.36318e-06
-9.73659e-06
6.12962e-07
5.36236e-06
-1.033e-05
9.65262e-07
2.30344e-06
-1.11332e-05
1.2739e-06
-1.87704e-06
-1.11651e-05
1.31804e-06
-9.19077e-06
-8.49228e-06
8.52146e-07
-1.96459e-05
-2.49261e-07
-2.80254e-05
-5.82072e-06
-4.98653e-07
1.61077e-05
-8.89214e-06
-4.62347e-07
1.68649e-05
-1.00965e-05
-1.74519e-07
1.30832e-05
-1.05174e-05
1.32443e-07
9.33677e-06
-1.07767e-05
4.08005e-07
6.05678e-06
-1.11789e-05
6.54923e-07
2.66792e-06
-1.17426e-05
8.43533e-07
-1.97727e-06
-1.15676e-05
8.41834e-07
-1.00785e-05
-8.65566e-06
5.10502e-07
-2.17545e-05
-1.42772e-07
-3.04544e-05
-5.8089e-06
-2.30213e-07
1.61202e-05
-8.93067e-06
-2.29348e-07
1.70163e-05
-1.01987e-05
-9.7072e-08
1.33176e-05
-1.06575e-05
5.25164e-08
9.59194e-06
-1.09254e-05
1.89529e-07
6.3059e-06
-1.1323e-05
3.08736e-07
2.8808e-06
-1.18925e-05
3.91352e-07
-1.8756e-06
-1.17475e-05
3.81132e-07
-1.02158e-05
-8.82074e-06
2.26709e-07
-2.22912e-05
-5.24708e-08
-3.11735e-05
-5.76037e-06
-5.64016e-13
1.60816e-05
-8.86262e-06
-7.59848e-13
1.69989e-05
-1.014e-05
-1.31317e-12
1.33467e-05
-1.06185e-05
-1.52515e-12
9.65574e-06
-1.09084e-05
-1.08849e-12
6.39362e-06
-1.13358e-05
2.36581e-13
2.97962e-06
-1.1948e-05
8.01039e-13
-1.80118e-06
-1.18521e-05
-8.38547e-13
-1.02154e-05
-8.92938e-06
-1.23818e-13
-2.24179e-05
2.40048e-13
-3.139e-05
-5.76037e-06
2.30212e-07
1.60816e-05
-8.86262e-06
2.29346e-07
1.69989e-05
-1.014e-05
9.70694e-08
1.33467e-05
-1.06185e-05
-5.25197e-08
9.65574e-06
-1.09084e-05
-1.89531e-07
6.39362e-06
-1.13358e-05
-3.08735e-07
2.97962e-06
-1.1948e-05
-3.91351e-07
-1.80118e-06
-1.18521e-05
-3.81133e-07
-1.02154e-05
-8.92938e-06
-2.26709e-07
-2.24179e-05
5.24709e-08
-3.139e-05
-5.8089e-06
4.98652e-07
1.61202e-05
-8.93067e-06
4.62347e-07
1.70163e-05
-1.01987e-05
1.74517e-07
1.33176e-05
-1.06575e-05
-1.32446e-07
9.59194e-06
-1.09254e-05
-4.08007e-07
6.3059e-06
-1.13231e-05
-6.54922e-07
2.8808e-06
-1.18925e-05
-8.43531e-07
-1.8756e-06
-1.17475e-05
-8.41835e-07
-1.02158e-05
-8.82074e-06
-5.10503e-07
-2.22912e-05
1.42771e-07
-3.11735e-05
-5.82072e-06
7.71454e-07
1.61077e-05
-8.89214e-06
6.37471e-07
1.68649e-05
-1.00965e-05
1.95164e-07
1.30832e-05
-1.05174e-05
-2.36797e-07
9.33677e-06
-1.07767e-05
-6.12964e-07
6.05679e-06
-1.11789e-05
-9.6526e-07
2.66792e-06
-1.17426e-05
-1.2739e-06
-1.97727e-06
-1.15676e-05
-1.31804e-06
-1.00785e-05
-8.65566e-06
-8.52148e-07
-2.17545e-05
2.4926e-07
-3.04544e-05
-5.402e-06
7.59462e-07
1.54582e-05
-8.04337e-06
5.36345e-07
1.56288e-05
-9.01545e-06
1.15778e-07
1.18855e-05
-9.38552e-06
-2.54851e-07
8.36318e-06
-9.73659e-06
-5.6323e-07
5.36237e-06
-1.033e-05
-8.68686e-07
2.30344e-06
-1.11332e-05
-1.18139e-06
-1.87704e-06
-1.11651e-05
-1.27587e-06
-9.19078e-06
-8.49228e-06
-9.37923e-07
-1.96459e-05
2.20898e-07
-2.80254e-05
-3.33567e-06
1.10376e-05
-4.55446e-06
9.80973e-06
-4.9465e-06
7.12314e-06
-5.2226e-06
4.94793e-06
-5.71265e-06
3.22499e-06
-6.57543e-06
1.50169e-06
-7.75871e-06
-9.62489e-07
-8.37788e-06
-5.45935e-06
-6.77958e-06
-1.21683e-05
-1.84783e-05
-3.38564e-06
-1.23884e-06
1.56621e-05
-1.55246e-06
-7.96656e-07
8.77321e-06
8.04188e-07
-9.08061e-08
4.8573e-06
2.34345e-06
4.5047e-07
2.9582e-06
2.97912e-06
8.69312e-07
1.72001e-06
2.55212e-06
1.28154e-06
6.47145e-07
8.50612e-07
1.75828e-06
-1.01926e-06
-1.91908e-06
1.92022e-06
-4.60988e-06
-3.62271e-06
1.3588e-06
-1.18234e-05
-1.2807e-06
-2.08204e-05
-5.68993e-06
-1.14093e-06
2.10502e-05
-3.43872e-06
-9.22985e-07
1.35039e-05
1.59298e-07
-2.52111e-07
8.44883e-06
3.12616e-06
3.40562e-07
5.50623e-06
5.14812e-06
8.34604e-07
3.37512e-06
5.95089e-06
1.29893e-06
1.48328e-06
5.17423e-06
1.76357e-06
-1.10567e-06
2.46952e-06
1.84567e-06
-6.41152e-06
1.89139e-07
9.90447e-07
-1.69971e-05
-1.00239e-06
-2.81146e-05
-6.11827e-06
-6.93873e-07
2.17789e-05
-3.87049e-06
-6.53717e-07
1.43478e-05
-7.89073e-08
-2.56566e-07
9.29611e-06
3.2483e-06
1.43467e-07
6.20666e-06
5.74247e-06
4.9996e-07
3.89726e-06
7.07399e-06
8.25353e-07
1.80997e-06
6.75043e-06
1.11683e-06
-1.00697e-06
4.20059e-06
1.12678e-06
-6.80974e-06
1.10599e-06
5.89062e-07
-1.82585e-05
-5.17651e-07
-2.98331e-05
-6.0463e-06
-3.08881e-07
2.17815e-05
-3.74797e-06
-3.19671e-07
1.43839e-05
6.68354e-08
-1.48416e-07
9.39463e-06
3.42767e-06
4.0713e-08
6.33386e-06
5.99192e-06
2.14812e-07
4.0268e-06
7.40712e-06
3.72545e-07