/*--------------------------------*- C++ -*----------------------------------*\
  =========                 |
  \\      /  F ield         | OpenFOAM: The Open Source CFD Toolbox
   \\    /   O peration     | Website:  https://openfoam.org
    \\  /    A nd           | Version:  9
     \\/     M anipulation  |
\*---------------------------------------------------------------------------*/
FoamFile
{
    format      ascii;
    class       volVectorField;
    location    "0.11";
    object      U;
}
// * * * * * * * * * * * * * * * * * * * * * * * * * * * * * * * * * * * * * //

dimensions      [0 1 -1 0 0 0 0];

internalField   nonuniform List<vector> 
1000
(
(-0.000554657 -0.000154042 0.000652712)
(-0.00300102 1.32446e-05 0.00128875)
(-0.0065998 6.44395e-05 0.00128713)
(-0.00957731 2.56506e-05 0.00101294)
(-0.011515 -7.16088e-05 0.000597869)
(-0.0120718 -0.000197971 7.52505e-05)
(-0.0109718 -0.000328453 -0.00053753)
(-0.00814276 -0.000412609 -0.00111413)
(-0.00394812 -0.000361866 -0.00135486)
(-0.000794312 -5.96117e-05 -0.000710996)
(-0.00100881 -0.000375028 0.00101854)
(-0.00521517 -0.000143938 0.00223421)
(-0.011258 -4.66896e-05 0.00224015)
(-0.0161601 -8.63655e-05 0.00170103)
(-0.0192426 -0.00022701 0.000892008)
(-0.0200192 -0.000430258 -0.000117786)
(-0.0181074 -0.000641826 -0.00125759)
(-0.0134016 -0.000768404 -0.002285)
(-0.00649066 -0.000663109 -0.00260836)
(-0.00130522 -0.00014362 -0.00122959)
(-0.00109896 -0.000406113 0.00101468)
(-0.00579867 -0.00033436 0.00240324)
(-0.0125825 -0.000253834 0.00243021)
(-0.0180519 -0.000240232 0.00182639)
(-0.0214718 -0.000294931 0.000911398)
(-0.0223081 -0.000403004 -0.000228406)
(-0.0201374 -0.000518991 -0.00151032)
(-0.0148454 -0.000575323 -0.00265382)
(-0.00708626 -0.000485729 -0.00296966)
(-0.00136486 -0.000154108 -0.00133352)
(-0.00108121 -0.000286218 0.000950778)
(-0.00587251 -0.000285428 0.00236715)
(-0.0128607 -0.000234555 0.00241003)
(-0.0184932 -0.00020902 0.00180949)
(-0.0220154 -0.000219995 0.000890139)
(-0.0228747 -0.000259492 -0.000261637)
(-0.0206308 -0.00030426 -0.00156256)
(-0.0151658 -0.00031934 -0.00272292)
(-0.00715762 -0.000267292 -0.00302788)
(-0.00133111 -0.000107134 -0.00132862)
(-0.00106194 -0.000101607 0.00091401)
(-0.00585774 -0.000109116 0.00232967)
(-0.0128929 -9.23323e-05 0.00238067)
(-0.0185681 -8.05757e-05 0.00178912)
(-0.0221211 -7.96448e-05 0.000878131)
(-0.0229907 -8.77374e-05 -0.000267425)
(-0.0207296 -9.78801e-05 -0.00156562)
(-0.0152187 -9.97757e-05 -0.00272502)
(-0.00714505 -8.34251e-05 -0.00302552)
(-0.00130684 -3.74931e-05 -0.00131545)
(-0.00106195 0.000101688 0.00091401)
(-0.00585774 0.000109149 0.00232967)
(-0.0128929 9.23547e-05 0.00238067)
(-0.0185681 8.05946e-05 0.00178912)
(-0.0221211 7.96594e-05 0.00087813)
(-0.0229907 8.77484e-05 -0.000267425)
(-0.0207296 9.78885e-05 -0.00156562)
(-0.0152187 9.97829e-05 -0.00272502)
(-0.00714505 8.34326e-05 -0.00302552)
(-0.00130684 3.7492e-05 -0.00131545)
(-0.00108121 0.000286318 0.000950782)
(-0.00587252 0.000285464 0.00236716)
(-0.0128607 0.00023458 0.00241003)
(-0.0184932 0.000209041 0.00180949)
(-0.0220154 0.000220011 0.000890138)
(-0.0228747 0.000259503 -0.000261638)
(-0.0206308 0.000304269 -0.00156256)
(-0.0151658 0.000319348 -0.00272292)
(-0.00715762 0.0002673 -0.00302788)
(-0.00133111 0.000107132 -0.00132862)
(-0.00109895 0.000406198 0.00101469)
(-0.00579868 0.00033438 0.00240327)
(-0.0125825 0.000253854 0.00243023)
(-0.0180519 0.00024025 0.0018264)
(-0.0214718 0.000294947 0.000911398)
(-0.0223081 0.000403016 -0.000228406)
(-0.0201374 0.000519001 -0.00151032)
(-0.0148454 0.000575331 -0.00265382)
(-0.00708626 0.000485738 -0.00296966)
(-0.00136486 0.000154107 -0.00133352)
(-0.00100873 0.000375083 0.00101863)
(-0.00521513 0.000143904 0.00223429)
(-0.0112581 4.67127e-05 0.00224018)
(-0.0161601 8.63887e-05 0.00170104)
(-0.0192426 0.000227029 0.000892012)
(-0.0200192 0.000430272 -0.000117783)
(-0.0181074 0.000641835 -0.00125759)
(-0.0134016 0.000768412 -0.00228499)
(-0.00649066 0.00066312 -0.00260835)
(-0.00130521 0.000143623 -0.00122959)
(-0.000554579 0.000153962 0.000652797)
(-0.00300106 -1.33292e-05 0.00128884)
(-0.00659987 -6.44428e-05 0.00128714)
(-0.00957739 -2.56434e-05 0.00101294)
(-0.0115151 7.1615e-05 0.000597871)
(-0.0120718 0.000197974 7.52529e-05)
(-0.0109718 0.000328453 -0.000537526)
(-0.00814278 0.00041261 -0.00111413)
(-0.00394813 0.000361871 -0.00135485)
(-0.000794308 5.96179e-05 -0.000710999)
(-0.00125689 -0.000502126 0.0034975)
(-0.00569781 -0.000350651 0.00587467)
(-0.0117095 -0.000245165 0.00567486)
(-0.0166082 -0.000205592 0.00436124)
(-0.0197537 -0.000218114 0.00245353)
(-0.0206599 -0.000273869 0.000107884)
(-0.0188984 -0.000340406 -0.00252055)
(-0.0142957 -0.00036802 -0.00497033)
(-0.00735788 -0.000244817 -0.00610231)
(-0.00170694 0.000159858 -0.00376729)
(-0.00250717 -0.00101187 0.00548948)
(-0.0107804 -0.000824893 0.00999499)
(-0.0215846 -0.000620393 0.00968579)
(-0.0301895 -0.000516817 0.00719218)
(-0.0355054 -0.00051297 0.00358758)
(-0.0367862 -0.000594815 -0.000783052)
(-0.033428 -0.000699692 -0.00557138)
(-0.0252214 -0.000728183 -0.00985114)
(-0.0130574 -0.000493736 -0.0114066)
(-0.00308207 0.000197388 -0.00637448)
(-0.00283853 -0.0008749 0.00576796)
(-0.0122841 -0.000866832 0.0109034)
(-0.024623 -0.000699861 0.0106073)
(-0.0343769 -0.000576381 0.00778721)
(-0.0403429 -0.000530915 0.00368848)
(-0.0417043 -0.000556835 -0.00127582)
(-0.0378091 -0.000606429 -0.00669604)
(-0.0284415 -0.000599196 -0.0114846)
(-0.0146087 -0.000422905 -0.0130562)
(-0.00338631 1.33375e-05 -0.00705176)
(-0.00285848 -0.000547694 0.00567111)
(-0.0125466 -0.000601956 0.0109265)
(-0.0252946 -0.000502056 0.0106661)
(-0.0353629 -0.000410671 0.00781361)
(-0.0415161 -0.00036309 0.00364193)
(-0.0429109 -0.000357417 -0.00142746)
(-0.038873 -0.000368174 -0.00697353)
(-0.0291808 -0.000351004 -0.0118658)
(-0.0148805 -0.000255606 -0.0134186)
(-0.0033908 -4.6025e-05 -0.00716139)
(-0.00283527 -0.000183906 0.00558691)
(-0.0125461 -0.000212074 0.0108505)
(-0.0253825 -0.00017964 0.0106127)
(-0.0355271 -0.000146412 0.007777)
(-0.0417328 -0.000126614 0.00361438)
(-0.0431443 -0.00012039 -0.00145582)
(-0.039077 -0.000120128 -0.00701323)
(-0.0293063 -0.000112291 -0.0119186)
(-0.0148916 -8.32675e-05 -0.0134645)
(-0.00336449 -2.30983e-05 -0.00716146)
(-0.00283527 0.000183942 0.00558691)
(-0.0125461 0.000212042 0.0108505)
(-0.0253825 0.000179615 0.0106127)
(-0.0355271 0.000146403 0.007777)
(-0.0417328 0.000126613 0.00361438)
(-0.0431443 0.000120392 -0.00145582)
(-0.039077 0.000120132 -0.00701323)
(-0.0293063 0.000112299 -0.0119186)
(-0.0148916 8.32812e-05 -0.0134645)
(-0.00336449 2.31057e-05 -0.00716146)
(-0.00285847 0.000547736 0.00567111)
(-0.0125466 0.00060192 0.0109265)
(-0.0252946 0.000502029 0.0106661)
(-0.0353629 0.000410663 0.00781361)
(-0.0415161 0.000363089 0.00364193)
(-0.0429109 0.000357419 -0.00142746)
(-0.038873 0.000368178 -0.00697353)
(-0.0291808 0.000351014 -0.0118658)
(-0.0148805 0.000255622 -0.0134186)
(-0.0033908 4.60316e-05 -0.00716139)
(-0.0028385 0.000874922 0.00576797)
(-0.012284 0.000866774 0.0109034)
(-0.024623 0.000699826 0.0106073)
(-0.0343769 0.000576371 0.00778721)
(-0.0403429 0.000530915 0.00368848)
(-0.0417043 0.000556839 -0.00127582)
(-0.0378091 0.000606436 -0.00669604)
(-0.0284415 0.00059921 -0.0114846)
(-0.0146087 0.000422925 -0.0130562)
(-0.0033863 -1.33286e-05 -0.00705175)
(-0.00250708 0.00101183 0.00548953)
(-0.0107803 0.00082481 0.00999508)
(-0.0215845 0.000620364 0.00968582)
(-0.0301895 0.000516818 0.00719219)
(-0.0355054 0.000512979 0.00358758)
(-0.0367862 0.000594825 -0.000783051)
(-0.033428 0.000699703 -0.00557137)
(-0.0252214 0.0007282 -0.00985114)
(-0.0130573 0.000493762 -0.0114066)
(-0.00308206 -0.000197376 -0.00637449)
(-0.0012568 0.000502035 0.00349748)
(-0.00569777 0.000350568 0.00587473)
(-0.0117095 0.000245137 0.00567486)
(-0.0166082 0.000205587 0.00436124)
(-0.0197537 0.000218116 0.00245353)
(-0.0206599 0.000273872 0.000107885)
(-0.0188984 0.00034041 -0.00252054)
(-0.0142957 0.000368028 -0.00497032)
(-0.00735788 0.000244835 -0.00610231)
(-0.00170693 -0.000159845 -0.00376729)
(-0.00170617 -0.000790982 0.00844226)
(-0.00743437 -0.000648654 0.0132374)
(-0.0149719 -0.000497698 0.012557)
(-0.0210745 -0.000399345 0.00957607)
(-0.0251124 -0.000353825 0.00537487)
(-0.0265451 -0.000364438 0.000264236)
(-0.0247738 -0.000409478 -0.00545743)
(-0.019317 -0.000419322 -0.0109271)
(-0.0104401 -0.000244699 -0.0137731)
(-0.00260925 0.000279971 -0.00925651)
(-0.00347788 -0.00156069 0.0132209)
(-0.0143907 -0.00141095 0.0222461)
(-0.0282195 -0.00111057 0.0211454)
(-0.0391371 -0.000882164 0.0155734)
(-0.0460521 -0.000758451 0.00773754)
(-0.0481543 -0.000748016 -0.00165288)
(-0.0445671 -0.000803292 -0.0119736)
(-0.0345868 -0.000795314 -0.0214423)
(-0.0187535 -0.000474867 -0.0254632)
(-0.0047311 0.000398849 -0.0155396)
(-0.00396425 -0.0013032 0.0141165)
(-0.0164937 -0.00135463 0.024385)
(-0.0323715 -0.00110049 0.0232301)
(-0.0448059 -0.000859258 0.0169133)
(-0.0525956 -0.000702879 0.00799065)
(-0.0548592 -0.000643456 -0.00269571)
(-0.0506452 -0.000641241 -0.0144065)
(-0.0391853 -0.000602596 -0.0250307)
(-0.0210988 -0.000378464 -0.0292014)
(-0.0052412 0.000137517 -0.0173105)
(-0.0040017 -0.000791689 0.0140873)
(-0.0168632 -0.000893346 0.0246162)
(-0.0332779 -0.00073815 0.0235083)
(-0.0461219 -0.000569123 0.0170831)
(-0.0541634 -0.000448059 0.00796021)
(-0.0564922 -0.000385278 -0.00299427)
(-0.0521235 -0.000360555 -0.0150177)
(-0.0402613 -0.000324659 -0.0259121)
(-0.0215509 -0.00021195 -0.030098)
(-0.00528346 1.50231e-05 -0.0176965)
(-0.00397148 -0.0002609 0.013983)
(-0.01686 -0.000306254 0.0245435)
(-0.0333845 -0.000255215 0.0234746)
(-0.0463244 -0.000195467 0.0170673)
(-0.0544359 -0.000150509 0.00794174)
(-0.0567951 -0.000124545 -0.00303746)
(-0.0524021 -0.000111922 -0.0151071)
(-0.0404503 -9.81156e-05 -0.0260526)
(-0.0215943 -6.56793e-05 -0.030246)
(-0.00526226 -5.528e-06 -0.0177536)
(-0.00397148 0.000260928 0.013983)
(-0.01686 0.000306223 0.0245435)
(-0.0333845 0.000255196 0.0234746)
(-0.0463244 0.000195465 0.0170673)
(-0.0544359 0.000150512 0.00794174)
(-0.0567951 0.000124548 -0.00303746)
(-0.0524021 0.000111925 -0.0151071)
(-0.0404503 9.81205e-05 -0.0260526)
(-0.0215944 6.56852e-05 -0.030246)
(-0.00526226 5.53448e-06 -0.0177536)
(-0.0040017 0.000791718 0.0140873)
(-0.0168632 0.000893313 0.0246163)
(-0.0332779 0.000738129 0.0235083)
(-0.0461219 0.00056912 0.0170831)
(-0.0541634 0.000448061 0.0079602)
(-0.0564922 0.000385279 -0.00299428)
(-0.0521235 0.000360558 -0.0150177)
(-0.0402613 0.000324665 -0.0259121)
(-0.0215509 0.000211957 -0.030098)
(-0.00528346 -1.50173e-05 -0.0176965)
(-0.00396423 0.00130322 0.0141165)
(-0.0164937 0.00135458 0.024385)
(-0.0323715 0.00110046 0.0232301)
(-0.0448059 0.000859251 0.0169133)
(-0.0525955 0.000702877 0.00799064)
(-0.0548592 0.000643455 -0.00269572)
(-0.0506452 0.000641243 -0.0144065)
(-0.0391853 0.000602602 -0.0250307)
(-0.0210988 0.000378473 -0.0292015)
(-0.0052412 -0.000137514 -0.0173105)
(-0.00347785 0.0015607 0.0132209)
(-0.0143907 0.0014109 0.0222461)
(-0.0282195 0.00111055 0.0211454)
(-0.039137 0.000882166 0.0155734)
(-0.046052 0.000758456 0.00773754)
(-0.0481543 0.000748018 -0.00165289)
(-0.0445671 0.000803296 -0.0119737)
(-0.0345868 0.000795323 -0.0214424)
(-0.0187535 0.000474878 -0.0254633)
(-0.0047311 -0.000398847 -0.0155396)
(-0.00170616 0.000790968 0.00844221)
(-0.00743438 0.000648616 0.0132374)
(-0.0149719 0.00049768 0.012557)
(-0.0210745 0.000399342 0.00957606)
(-0.0251124 0.000353826 0.00537486)
(-0.0265452 0.000364436 0.000264237)
(-0.0247738 0.000409478 -0.00545743)
(-0.019317 0.000419326 -0.0109271)
(-0.0104401 0.000244707 -0.0137731)
(-0.00260925 -0.000279967 -0.0092565)
(-0.00231206 -0.00113139 0.0148166)
(-0.00961637 -0.000981394 0.02246)
(-0.0189081 -0.000768399 0.0210554)
(-0.0264026 -0.000604417 0.0161058)
(-0.0316244 -0.000504453 0.00934618)
(-0.0340618 -0.000479427 0.00113287)
(-0.0328636 -0.000532842 -0.00832546)
(-0.0268866 -0.00056343 -0.0179206)
(-0.0157049 -0.000354565 -0.0237446)
(-0.00436896 0.000326412 -0.0171129)
(-0.0046777 -0.00221658 0.0229995)
(-0.0186348 -0.00207885 0.037328)
(-0.0358042 -0.00164112 0.0350363)
(-0.0492966 -0.00125694 0.0258475)
(-0.0582788 -0.000999569 0.0132812)
(-0.0620298 -0.000897762 -0.00178488)
(-0.0592546 -0.000944136 -0.0188036)
(-0.0481457 -0.000966178 -0.0353856)
(-0.0281071 -0.000607295 -0.0438912)
(-0.0077902 0.000477295 -0.0286996)
(-0.00531703 -0.00182969 0.0246011)
(-0.0213292 -0.00192921 0.0408863)
(-0.0410637 -0.00153943 0.0384586)
(-0.0564553 -0.00113069 0.0280688)
(-0.066597 -0.000824784 0.0137834)
(-0.0707168 -0.000657179 -0.00333519)
(-0.0673938 -0.000613764 -0.0226598)
(-0.0546106 -0.000589153 -0.0412983)
(-0.0317056 -0.000374176 -0.0503322)
(-0.00867429 0.000194542 -0.0320512)
(-0.00535802 -0.00109714 0.0246435)
(-0.0217703 -0.00124109 0.0413583)
(-0.0421606 -0.000995226 0.0390073)
(-0.0580604 -0.000709185 0.0284503)
(-0.0685403 -0.000480882 0.0138544)
(-0.0728016 -0.000337897 -0.003687)
(-0.0693741 -0.000275133 -0.0235364)
(-0.0561621 -0.00024451 -0.0426843)
(-0.0324821 -0.000154881 -0.0518625)
(-0.00881104 5.56194e-05 -0.0328323)
(-0.00531271 -0.000358205 0.0245183)
(-0.0217434 -0.000419444 0.0412977)
(-0.0422582 -0.000337244 0.0390157)
(-0.058274 -0.00023644 0.0284927)
(-0.0688491 -0.000153363 0.0138967)
(-0.0731699 -9.86174e-05 -0.00368473)
(-0.0697458 -7.15773e-05 -0.0236153)
(-0.0564531 -5.92271e-05 -0.0428722)
(-0.0326015 -3.73317e-05 -0.052108)
(-0.00881344 9.71893e-06 -0.0329673)
(-0.00531271 0.000358228 0.0245183)
(-0.0217434 0.000419423 0.0412977)
(-0.0422582 0.000337234 0.0390157)
(-0.058274 0.000236443 0.0284927)
(-0.0688491 0.000153365 0.0138967)
(-0.0731699 9.86137e-05 -0.00368474)
(-0.0697458 7.15685e-05 -0.0236153)
(-0.0564531 5.92135e-05 -0.0428722)
(-0.0326015 3.73175e-05 -0.052108)
(-0.00881344 -9.71888e-06 -0.0329673)
(-0.00535802 0.00109716 0.0246434)
(-0.0217703 0.00124107 0.0413583)
(-0.0421606 0.000995213 0.0390073)
(-0.0580604 0.000709185 0.0284503)
(-0.0685403 0.000480881 0.0138544)
(-0.0728016 0.00033789 -0.00368701)
(-0.0693741 0.000275123 -0.0235364)
(-0.0561621 0.000244497 -0.0426844)
(-0.0324821 0.000154867 -0.0518625)
(-0.00881104 -5.56208e-05 -0.0328323)
(-0.00531702 0.00182971 0.0246011)
(-0.0213292 0.00192918 0.0408863)
(-0.0410637 0.00153941 0.0384586)
(-0.0564552 0.00113068 0.0280688)
(-0.066597 0.000824777 0.0137834)
(-0.0707168 0.000657166 -0.00333521)
(-0.0673938 0.000613751 -0.0226598)
(-0.0546106 0.000589139 -0.0412983)
(-0.0317056 0.000374162 -0.0503322)
(-0.00867429 -0.000194548 -0.0320512)
(-0.00467769 0.00221658 0.0229995)
(-0.0186347 0.00207882 0.037328)
(-0.0358041 0.00164111 0.0350364)
(-0.0492966 0.00125694 0.0258475)
(-0.0582788 0.000999563 0.0132812)
(-0.0620298 0.000897747 -0.00178491)
(-0.0592546 0.000944119 -0.0188036)
(-0.0481457 0.000966163 -0.0353856)
(-0.0281072 0.00060728 -0.0438912)
(-0.0077902 -0.000477305 -0.0286996)
(-0.00231205 0.00113139 0.0148165)
(-0.00961637 0.000981374 0.02246)
(-0.0189081 0.00076839 0.0210554)
(-0.0264026 0.000604415 0.0161057)
(-0.0316244 0.000504447 0.00934617)
(-0.0340618 0.000479414 0.00113286)
(-0.0328636 0.000532828 -0.00832548)
(-0.0268866 0.000563418 -0.0179206)
(-0.0157049 0.000354555 -0.0237446)
(-0.00436896 -0.000326418 -0.0171129)
(-0.00343024 -0.0016162 0.0234884)
(-0.0131111 -0.00142401 0.0343436)
(-0.0246304 -0.00108288 0.0317254)
(-0.0338118 -0.000789514 0.0244102)
(-0.0406146 -0.000583189 0.0148764)
(-0.0447367 -0.000485644 0.00329727)
(-0.0450716 -0.000536328 -0.0106157)
(-0.0393774 -0.000631672 -0.026033)
(-0.0256932 -0.000468699 -0.0373613)
(-0.00817823 0.000249919 -0.0296811)
(-0.00672215 -0.00312848 0.035984)
(-0.0250884 -0.002943 0.0563887)
(-0.0465017 -0.00223258 0.0521901)
(-0.0631277 -0.00155338 0.0387423)
(-0.0748704 -0.00103937 0.0210444)
(-0.0814054 -0.000738741 -0.000252324)
(-0.0810203 -0.000749765 -0.0252644)
(-0.0700858 -0.000874904 -0.0519605)
(-0.0455138 -0.000659583 -0.0691905)
(-0.0142644 0.000353461 -0.0499599)
(-0.00757116 -0.00253838 0.0384033)
(-0.0285467 -0.00264963 0.0616092)
(-0.0531629 -0.00200119 0.0572022)
(-0.0721569 -0.00128974 0.0421007)
(-0.0854348 -0.000709575 0.022055)
(-0.0927191 -0.000320538 -0.00212909)
(-0.0920922 -0.000207812 -0.0304647)
(-0.0794561 -0.000256091 -0.060521)
(-0.0514109 -0.000223853 -0.0792503)
(-0.0159493 0.00014702 -0.0559303)
(-0.00760528 -0.00149883 0.0385132)
(-0.0290422 -0.00166809 0.0623599)
(-0.0544481 -0.00125435 0.0581055)
(-0.074072 -0.000763538 0.0428268)
(-0.0878096 -0.000346825 0.0224045)
(-0.0953759 -5.9924e-05 -0.00233758)
(-0.0947869 6.73979e-05 -0.0314102)
(-0.0817826 5.68016e-05 -0.0623222)
(-0.0528498 1.61897e-05 -0.081536)
(-0.0163309 6.2155e-05 -0.0573651)
(-0.00753311 -0.000484617 0.0383607)
(-0.0289628 -0.00055702 0.062319)
(-0.0545024 -0.00041806 0.0581902)
(-0.0742668 -0.000246538 0.0429905)
(-0.0881402 -9.79597e-05 0.0225974)
(-0.095819 4.91392e-06 -0.00217317)
(-0.0952966 5.59578e-05 -0.0313554)
(-0.082261 5.49889e-05 -0.0624609)
(-0.0531543 3.16327e-05 -0.0818553)
(-0.0164097 1.8758e-05 -0.0576313)
(-0.00753311 0.000484631 0.0383607)
(-0.0289628 0.000557004 0.062319)
(-0.0545024 0.000418052 0.0581902)
(-0.0742668 0.000246538 0.0429905)
(-0.0881402 9.79537e-05 0.0225974)
(-0.095819 -4.92579e-06 -0.00217317)
(-0.0952966 -5.59721e-05 -0.0313554)
(-0.082261 -5.50026e-05 -0.0624609)
(-0.0531543 -3.16371e-05 -0.0818552)
(-0.0164097 -1.87534e-05 -0.0576313)
(-0.00760528 0.00149885 0.0385132)
(-0.0290422 0.00166807 0.0623599)
(-0.0544481 0.00125434 0.0581055)
(-0.074072 0.000763534 0.0428268)
(-0.0878096 0.000346817 0.0224045)
(-0.0953759 5.99112e-05 -0.00233758)
(-0.0947869 -6.74109e-05 -0.0314102)
(-0.0817826 -5.68144e-05 -0.0623221)
(-0.0528498 -1.61965e-05 -0.081536)
(-0.0163308 -6.21537e-05 -0.0573651)
(-0.00757116 0.00253839 0.0384033)
(-0.0285467 0.00264961 0.0616093)
(-0.0531629 0.00200118 0.0572023)
(-0.0721569 0.00128974 0.0421007)
(-0.0854348 0.000709562 0.022055)
(-0.0927191 0.000320519 -0.0021291)
(-0.0920922 0.000207798 -0.0304647)
(-0.079456 0.000256081 -0.060521)
(-0.0514109 0.000223846 -0.0792503)
(-0.0159493 -0.000147021 -0.0559303)
(-0.00672214 0.00312848 0.0359839)
(-0.0250884 0.00294299 0.0563887)
(-0.0465016 0.00223258 0.0521901)
(-0.0631277 0.00155338 0.0387424)
(-0.0748704 0.00103936 0.0210444)
(-0.0814054 0.000738718 -0.000252333)
(-0.0810203 0.000749751 -0.0252644)
(-0.0700858 0.000874902 -0.0519604)
(-0.0455138 0.00065959 -0.0691905)
(-0.0142644 -0.000353455 -0.0499599)
(-0.00343023 0.0016162 0.0234883)
(-0.0131111 0.001424 0.0343436)
(-0.0246304 0.00108288 0.0317254)
(-0.0338118 0.000789514 0.0244102)
(-0.0406146 0.00058318 0.0148764)
(-0.0447367 0.000485627 0.00329725)
(-0.0450716 0.000536315 -0.0106157)
(-0.0393774 0.000631669 -0.026033)
(-0.0256932 0.000468708 -0.0373612)
(-0.00817822 -0.000249909 -0.0296811)
(-0.00562951 -0.00233896 0.0360719)
(-0.01891 -0.00200168 0.0498742)
(-0.0327585 -0.0013518 0.0448885)
(-0.0434196 -0.000756483 0.034571)
(-0.0518413 -0.000302934 0.0221637)
(-0.0583062 -1.5682e-05 0.00731806)
(-0.0616955 0.000109635 -0.0115097)
(-0.058308 -5.1503e-05 -0.0348771)
(-0.0433978 -0.000192817 -0.0559873)
(-0.0157611 -5.57722e-05 -0.0513092)
(-0.0104318 -0.00444151 0.0542946)
(-0.0352074 -0.00403312 0.0808761)
(-0.0612916 -0.00271407 0.0732418)
(-0.0808017 -0.00139998 0.0546851)
(-0.0953155 -0.000335426 0.0318017)
(-0.105435 0.000392922 0.00447525)
(-0.109521 0.000782651 -0.0294332)
(-0.101672 0.00056972 -0.07004)
(-0.074609 0.000122924 -0.103472)
(-0.0263106 -0.000139785 -0.0866663)
(-0.0115716 -0.00350733 0.0576863)
(-0.0396397 -0.00352394 0.0880757)
(-0.0696698 -0.00235437 0.080216)
(-0.0920326 -0.00105949 0.0596362)
(-0.10849 4.58084e-05 0.0339014)
(-0.119698 0.00084016 0.00299645)
(-0.123912 0.00127785 -0.0353257)
(-0.114582 0.00113951 -0.0811148)
(-0.0837182 0.000567064 -0.118134)
(-0.0292039 -7.80624e-05 -0.0971241)
(-0.0115773 -0.00202701 0.0578543)
(-0.0401382 -0.00217353 0.0891504)
(-0.0710938 -0.00144472 0.0815997)
(-0.0942213 -0.000587348 0.0609195)
(-0.111287 0.000164611 0.0348364)
(-0.122935 0.000722823 0.00333852)
(-0.127393 0.00101768 -0.0359047)
(-0.11789 0.000937942 -0.0830278)
(-0.0861708 0.000531381 -0.121246)
(-0.0300121 5.64613e-06 -0.0996839)
(-0.0114587 -0.000647386 0.0576631)
(-0.0399553 -0.000717821 0.0891341)
(-0.0710407 -0.000476324 0.0818037)
(-0.0943387 -0.000183099 0.0612876)
(-0.11159 7.77879e-05 0.0353048)
(-0.123429 0.00027495 0.00382947)
(-0.12807 0.000374719 -0.0355268)
(-0.118653 0.00034813 -0.0829612)
(-0.0868203 0.000205985 -0.121598)
(-0.0302544 1.43932e-05 -0.100191)
(-0.0114587 0.000647394 0.0576631)
(-0.0399553 0.000717812 0.0891341)
(-0.0710407 0.000476318 0.0818037)
(-0.0943387 0.000183096 0.0612876)
(-0.11159 -7.77967e-05 0.0353048)
(-0.123429 -0.000274958 0.00382947)
(-0.12807 -0.000374717 -0.0355268)
(-0.118653 -0.000348119 -0.0829612)
(-0.0868203 -0.000205974 -0.121598)
(-0.0302544 -1.43864e-05 -0.100191)
(-0.0115773 0.00202702 0.0578543)
(-0.0401382 0.00217353 0.0891504)
(-0.0710938 0.00144471 0.0815997)
(-0.0942213 0.000587344 0.0609195)
(-0.111287 -0.00016462 0.0348364)
(-0.122935 -0.000722831 0.00333852)
(-0.127393 -0.00101767 -0.0359047)
(-0.11789 -0.000937935 -0.0830278)
(-0.0861708 -0.000531373 -0.121246)
(-0.0300121 -5.63995e-06 -0.0996839)
(-0.0115716 0.00350734 0.0576862)
(-0.0396397 0.00352394 0.0880757)
(-0.0696698 0.00235438 0.0802161)
(-0.0920326 0.00105948 0.0596362)
(-0.10849 -4.58191e-05 0.0339014)
(-0.119698 -0.00084017 0.00299646)
(-0.123912 -0.00127785 -0.0353257)
(-0.114582 -0.0011395 -0.0811147)
(-0.0837183 -0.000567053 -0.118134)
(-0.0292039 7.80708e-05 -0.0971241)
(-0.0104318 0.00444152 0.0542946)
(-0.0352074 0.00403313 0.0808762)
(-0.0612916 0.00271408 0.0732418)
(-0.0808017 0.00139998 0.0546851)
(-0.0953156 0.000335412 0.0318017)
(-0.105435 -0.000392936 0.00447525)
(-0.109521 -0.000782637 -0.0294332)
(-0.101672 -0.000569688 -0.07004)
(-0.074609 -0.000122894 -0.103472)
(-0.0263106 0.00013979 -0.0866663)
(-0.0056295 0.00233897 0.0360718)
(-0.01891 0.00200169 0.0498742)
(-0.0327585 0.00135181 0.0448885)
(-0.0434196 0.000756484 0.034571)
(-0.0518413 0.000302924 0.0221637)
(-0.0583062 1.56695e-05 0.00731805)
(-0.0616955 -0.000109629 -0.0115097)
(-0.058308 5.1527e-05 -0.0348771)
(-0.0433978 0.000192846 -0.0559873)
(-0.0157611 5.57859e-05 -0.0513092)
(-0.0101736 -0.00341855 0.0558329)
(-0.028652 -0.00269378 0.0697163)
(-0.0430123 -0.00131273 0.0597486)
(-0.0530804 -4.76773e-05 0.0453115)
(-0.0616268 0.000982017 0.0300807)
(-0.0700624 0.00186313 0.0126822)
(-0.0778749 0.00257227 -0.0105969)
(-0.0799541 0.00257536 -0.0437639)
(-0.0687724 0.00169646 -0.0804538)
(-0.0277289 -0.000336994 -0.0897327)
(-0.0174588 -0.00633726 0.082062)
(-0.0509385 -0.00531146 0.111885)
(-0.0791185 -0.00265291 0.097371)
(-0.0978685 -3.17564e-05 0.072365)
(-0.111949 0.00220252 0.0447251)
(-0.123886 0.00412488 0.0128315)
(-0.132968 0.00561751 -0.0291443)
(-0.131267 0.00565129 -0.0869117)
(-0.108967 0.00364009 -0.146759)
(-0.0413223 -0.000756547 -0.151154)
(-0.0189827 -0.00483254 0.0866588)
(-0.0564434 -0.00453749 0.121426)
(-0.0891486 -0.00235813 0.106711)
(-0.110805 7.86227e-07 0.0794649)
(-0.12661 0.00208382 0.0487294)
(-0.139366 0.00381867 0.0129327)
(-0.148418 0.00500337 -0.0343793)
(-0.145061 0.00487412 -0.0995426)
(-0.119222 0.00295586 -0.16666)
(-0.0443473 -0.000428615 -0.169063)
(-0.0189197 -0.00271776 0.0868701)
(-0.0568094 -0.00275568 0.122845)
(-0.0905095 -0.00147237 0.108678)
(-0.112981 -1.78484e-06 0.0814954)
(-0.129407 0.00132624 0.0505416)
(-0.142632 0.00240833 0.014233)
(-0.152056 0.00307419 -0.0341361)
(-0.148716 0.00293696 -0.101272)
(-0.122337 0.00177364 -0.170831)
(-0.0454522 -0.000129705 -0.173687)
(-0.0187269 -0.000855278 0.0866222)
(-0.0564407 -0.000902659 0.122839)
(-0.0902368 -0.000490234 0.109019)
(-0.1129 -2.56516e-06 0.0821135)
(-0.129556 0.000442718 0.0513588)
(-0.143048 0.000801594 0.015144)
(-0.152794 0.0010095 -0.0333365)
(-0.149724 0.000954595 -0.10097)
(-0.123402 0.000578945 -0.171347)
(-0.0459163 -1.42279e-05 -0.174758)
(-0.0187269 0.00085528 0.0866222)
(-0.0564407 0.000902653 0.122839)
(-0.0902368 0.000490224 0.109019)
(-0.1129 2.54955e-06 0.0821135)
(-0.129556 -0.000442736 0.0513588)
(-0.143048 -0.000801597 0.015144)
(-0.152794 -0.00100949 -0.0333365)
(-0.149724 -0.000954592 -0.10097)
(-0.123402 -0.000578972 -0.171347)
(-0.0459163 1.42318e-05 -0.174758)
(-0.0189197 0.00271776 0.0868701)
(-0.0568094 0.00275568 0.122845)
(-0.0905095 0.00147236 0.108678)
(-0.112981 1.76914e-06 0.0814953)
(-0.129407 -0.00132625 0.0505416)
(-0.142632 -0.00240834 0.014233)
(-0.152056 -0.00307419 -0.0341361)
(-0.148716 -0.00293696 -0.101272)
(-0.122337 -0.00177365 -0.170831)
(-0.0454522 0.000129704 -0.173687)
(-0.0189827 0.00483255 0.0866588)
(-0.0564434 0.00453749 0.121426)
(-0.0891486 0.00235813 0.10671)
(-0.110805 -8.03799e-07 0.0794648)
(-0.12661 -0.00208384 0.0487294)
(-0.139366 -0.00381868 0.0129327)
(-0.148418 -0.00500336 -0.0343793)
(-0.145061 -0.00487412 -0.0995426)
(-0.119222 -0.00295587 -0.16666)
(-0.0443473 0.000428612 -0.169063)
(-0.0174588 0.00633727 0.082062)
(-0.0509385 0.00531148 0.111885)
(-0.0791186 0.00265291 0.097371)
(-0.0978686 3.17364e-05 0.072365)
(-0.111949 -0.00220255 0.0447251)
(-0.123886 -0.00412489 0.0128315)
(-0.132968 -0.00561749 -0.0291443)
(-0.131267 -0.00565127 -0.0869117)
(-0.108967 -0.0036401 -0.146759)
(-0.0413223 0.000756529 -0.151154)
(-0.0101736 0.00341856 0.0558329)
(-0.028652 0.0026938 0.0697163)
(-0.0430122 0.00131273 0.0597486)
(-0.0530804 4.76615e-05 0.0453114)
(-0.0616269 -0.000982039 0.0300807)
(-0.0700624 -0.00186314 0.0126822)
(-0.0778749 -0.00257226 -0.0105969)
(-0.0799542 -0.00257534 -0.0437639)
(-0.0687724 -0.00169646 -0.0804538)
(-0.0277289 0.000336978 -0.0897326)
(-0.0195666 -0.00487516 0.0840328)
(-0.0432842 -0.00340026 0.0902211)
(-0.0485967 -0.000671719 0.071861)
(-0.0508502 0.00168552 0.0522248)
(-0.0542511 0.00357141 0.0348069)
(-0.0610092 0.00545573 0.0166056)
(-0.0721495 0.00744333 -0.0092017)
(-0.0820403 0.00812082 -0.0537868)
(-0.0870021 0.00618102 -0.112861)
(-0.036073 -0.00143411 -0.158104)
(-0.0312575 -0.00881874 0.118744)
(-0.0732309 -0.00665144 0.144263)
(-0.0881379 -0.00167189 0.118713)
(-0.0927335 0.0029762 0.0859743)
(-0.0954569 0.00688914 0.0550671)
(-0.100275 0.0106927 0.022005)
(-0.1089 0.0143785 -0.0240323)
(-0.112684 0.01533 -0.0997776)
(-0.113718 0.0107329 -0.195658)
(-0.0404417 -0.00311647 -0.254763)
(-0.0334395 -0.00655727 0.124152)
(-0.0798688 -0.00575205 0.156271)
(-0.0984176 -0.00199875 0.130655)
(-0.104187 0.00188696 0.0954955)
(-0.106568 0.00532127 0.0614834)
(-0.109957 0.00844283 0.0246076)
(-0.116605 0.01099 -0.0269646)
(-0.117393 0.0111164 -0.111987)
(-0.117016 0.0068159 -0.220001)
(-0.0396485 -0.00193346 -0.281221)
(-0.0332936 -0.00360597 0.124298)
(-0.0799219 -0.00349387 0.157985)
(-0.0992141 -0.00142555 0.133233)
(-0.105488 0.000856648 0.0982378)
(-0.108081 0.00294545 0.0640999)
(-0.111466 0.00477022 0.0267752)
(-0.118154 0.00607356 -0.0259125)
(-0.118947 0.00594936 -0.113698)
(-0.119076 0.00355577 -0.225766)
(-0.0403988 -0.000840085 -0.288719)
(-0.033001 -0.00112016 0.123978)
(-0.079268 -0.00114251 0.157942)
(-0.0985589 -0.000502735 0.133679)
(-0.104999 0.000231233 0.0990313)
(-0.107803 0.000912984 0.065136)
(-0.111438 0.0014974 0.0279262)
(-0.118501 0.00188611 -0.024907)
(-0.119749 0.0018194 -0.113521)
(-0.12036 0.00108823 -0.226897)
(-0.0410715 -0.000206618 -0.290825)
(-0.033001 0.00112015 0.123978)
(-0.079268 0.00114249 0.157942)
(-0.0985589 0.000502707 0.133679)
(-0.104999 -0.000231267 0.0990313)
(-0.107803 -0.000913008 0.065136)
(-0.111438 -0.0014974 0.0279262)
(-0.118501 -0.00188609 -0.024907)
(-0.119749 -0.00181942 -0.113521)
(-0.12036 -0.00108823 -0.226897)
(-0.0410715 0.000206621 -0.290825)
(-0.0332936 0.00360596 0.124298)
(-0.0799219 0.00349385 0.157985)
(-0.0992141 0.00142552 0.133233)
(-0.105488 -0.00085668 0.0982378)
(-0.108081 -0.00294547 0.0640999)
(-0.111466 -0.00477022 0.0267752)
(-0.118154 -0.00607355 -0.0259125)
(-0.118947 -0.00594936 -0.113698)
(-0.119076 -0.00355577 -0.225766)
(-0.0403988 0.000840088 -0.288719)
(-0.0334395 0.00655727 0.124152)
(-0.0798688 0.00575205 0.156271)
(-0.0984176 0.00199874 0.130655)
(-0.104187 -0.00188698 0.0954955)
(-0.106568 -0.00532128 0.0614834)
(-0.109957 -0.00844282 0.0246077)
(-0.116605 -0.01099 -0.0269646)
(-0.117393 -0.0111164 -0.111987)
(-0.117016 -0.00681591 -0.220001)
(-0.0396485 0.00193345 -0.281221)
(-0.0312575 0.00881875 0.118744)
(-0.0732309 0.00665145 0.144263)
(-0.088138 0.00167188 0.118713)
(-0.0927336 -0.00297622 0.0859743)
(-0.0954569 -0.00688915 0.0550671)
(-0.100275 -0.0106927 0.0220051)
(-0.1089 -0.0143785 -0.0240323)
(-0.112684 -0.01533 -0.0997776)
(-0.113718 -0.010733 -0.195658)
(-0.0404417 0.00311646 -0.254763)
(-0.0195666 0.00487517 0.0840327)
(-0.0432842 0.00340027 0.0902211)
(-0.0485967 0.000671718 0.071861)
(-0.0508502 -0.00168554 0.0522247)
(-0.0542511 -0.00357143 0.0348069)
(-0.0610092 -0.00545572 0.0166056)
(-0.0721495 -0.0074433 -0.00920171)
(-0.0820404 -0.00812081 -0.0537868)
(-0.0870021 -0.00618105 -0.112861)
(-0.036073 0.00143409 -0.158104)
(-0.0258078 -0.00806398 0.156205)
(-0.032835 -0.00514833 0.10201)
(-0.00168352 -0.000409335 0.0638361)
(0.017634 0.00309725 0.0414014)
(0.0283456 0.00570012 0.0254648)
(0.0298404 0.00828995 0.0101501)
(0.0180156 0.0113383 -0.0133535)
(0.000315996 0.0124194 -0.0623254)
(-0.0463139 0.00897846 -0.146637)
(-0.00637332 -0.00865159 -0.234051)
(-0.0454338 -0.0138738 0.213808)
(-0.0582811 -0.00973795 0.160707)
(-0.0151781 -0.00172977 0.108499)
(0.0184736 0.00484672 0.0730538)
(0.0434757 0.010071 0.0457524)
(0.0580995 0.0151096 0.0193227)
(0.0558948 0.0206433 -0.0187298)
(0.0505972 0.0222598 -0.0949578)
(-0.0113802 0.0141969 -0.222965)
(0.0232928 -0.0138388 -0.33297)
(-0.0491388 -0.00941386 0.221834)
(-0.0632994 -0.00821186 0.172649)
(-0.0190153 -0.00285712 0.119584)
(0.0176732 0.00233421 0.0821129)
(0.0468806 0.00684279 0.0524295)
(0.0666888 0.0109698 0.0233443)