/*--------------------------------*- C++ -*----------------------------------*\
  =========                 |
  \\      /  F ield         | OpenFOAM: The Open Source CFD Toolbox
   \\    /   O peration     | Website:  https://openfoam.org
    \\  /    A nd           | Version:  9
     \\/     M anipulation  |
\*---------------------------------------------------------------------------*/
FoamFile
{
    format      ascii;
    class       volScalarField;
    location    "0.82";
    object      p;
}
// * * * * * * * * * * * * * * * * * * * * * * * * * * * * * * * * * * * * * //

dimensions      [0 2 -2 0 0 0 0];

internalField   nonuniform List<scalar> 
1000
(
-3.21776e-06
-0.000494911
-0.00018642
0.000872887
0.00275875
0.00534449
0.00816876
0.0104675
0.0115367
0.0106794
0.000167662
-0.000739095
-0.000538959
0.000566396
0.00263537
0.00552172
0.00868907
0.0112066
0.0122179
0.0108097
0.000953012
-0.000231111
-6.99388e-05
0.00113679
0.00345568
0.00671272
0.0102625
0.0129248
0.0136862
0.0115336
0.00180326
0.000433804
0.000581175
0.00188944
0.00443713
0.0080339
0.0118497
0.0145659
0.0150644
0.0123169
0.0023377
0.000880477
0.00102675
0.0023953
0.00506886
0.00883943
0.0128012
0.015527
0.0158671
0.012804
0.00233772
0.000880501
0.00102676
0.00239532
0.00506887
0.00883944
0.0128012
0.015527
0.0158671
0.012804
0.00180334
0.000433881
0.000581233
0.00188948
0.00443716
0.00803392
0.0118497
0.0145659
0.0150644
0.012317
0.000953165
-0.000230968
-6.98372e-05
0.00113686
0.00345573
0.00671275
0.0102625
0.0129248
0.0136862
0.0115336
0.000167963
-0.000738857
-0.000538809
0.000566495
0.00263544
0.00552177
0.0086891
0.0112066
0.0122179
0.0108097
-2.88166e-06
-0.000494608
-0.000186242
0.000873
0.00275883
0.00534454
0.0081688
0.0104675
0.0115367
0.0106794
0.000407903
-2.67758e-05
0.000300769
0.00122871
0.00286235
0.00515466
0.00774063
0.00995077
0.0110409
0.00989722
0.000947639
2.20134e-05
0.00026695
0.00118653
0.00285675
0.00524432
0.00797476
0.0103113
0.0113617
0.00956249
0.00217381
0.000835836
0.00101021
0.00192455
0.00366301
0.00619906
0.00916422
0.0115786
0.0124221
0.00986976
0.00334013
0.0016853
0.00179563
0.0027071
0.00451887
0.00722296
0.0103594
0.0128031
0.0134374
0.0103331
0.00403533
0.00221117
0.0022852
0.00319493
0.00504834
0.00785358
0.0110767
0.0135221
0.0140319
0.0106541
0.00403535
0.0022112
0.00228521
0.00319494
0.00504835
0.00785359
0.0110767
0.0135221
0.0140319
0.0106541
0.00334021
0.00168537
0.00179569
0.00270713
0.0045189
0.00722298
0.0103594
0.0128031
0.0134374
0.0103331
0.00217395
0.000835962
0.00101031
0.00192462
0.00366306
0.0061991
0.00916425
0.0115786
0.0124222
0.00986977
0.000947878
2.22071e-05
0.000267083
0.00118663
0.00285682
0.00524437
0.00797479
0.0103113
0.0113617
0.00956252
0.000408229
-2.65309e-05
0.000300927
0.00122882
0.00286242
0.00515471
0.00774067
0.0099508
0.0110409
0.00989724
-0.000940776
-0.00150959
-0.0013059
-0.000585663
0.000865955
0.00317767
0.00613042
0.0090369
0.0108015
0.00949051
-7.76529e-05
-0.00130568
-0.00118777
-0.000470411
0.00102209
0.00345488
0.00660672
0.00968589
0.0113766
0.00891687
0.00167149
-0.000150741
-0.000165434
0.000453902
0.00191808
0.00445012
0.00782224
0.0110329
0.0125246
0.00901619
0.00326769
0.000989373
0.000845226
0.00136747
0.0028124
0.00545067
0.00895332
0.0122122
0.0135015
0.00929146
0.00419736
0.00167547
0.001455
0.00192004
0.00335474
0.00604101
0.00960654
0.0128699
0.0140399
0.00950407
0.00419738
0.00167549
0.00145502
0.00192005
0.00335476
0.00604103
0.00960656
0.0128699
0.0140399
0.00950407
0.00326775
0.000989429
0.00084527
0.0013675
0.00281243
0.00545069
0.00895333
0.0122122
0.0135015
0.00929147
0.0016716
-0.000150644
-0.000165359
0.000453957
0.00191812
0.00445015
0.00782227
0.011033
0.0125246
0.00901622
-7.74982e-05
-0.00130555
-0.00118767
-0.000470336
0.00102214
0.00345492
0.00660674
0.0096859
0.0113766
0.00891691
-0.000940587
-0.00150943
-0.00130578
-0.000585575
0.000866019
0.00317771
0.00613045
0.00903691
0.0108015
0.00949051
-0.00444282
-0.00513934
-0.00511453
-0.00467765
-0.00342924
-0.00093234
0.00287567
0.00737136
0.0108395
0.00994269
-0.0032578
-0.00476418
-0.00482756
-0.00437546
-0.00305329
-0.000377168
0.00373437
0.00856322
0.0119609
0.00932677
-0.000979159
-0.0032608
-0.00356577
-0.00336942
-0.00224304
0.000447705
0.00470865
0.00979993
0.0131312
0.00932339
0.0010587
-0.00181561
-0.00235741
-0.00241422
-0.00148449
0.00112812
0.00551279
0.0107297
0.0139593
0.0094562
0.00223059
-0.000958761
-0.00163997
-0.00184411
-0.0010223
0.00155012
0.00595091
0.0111993
0.0143651
0.00957017
0.00223061
-0.000958747
-0.00163996
-0.0018441
-0.00102229
0.00155013
0.00595092
0.0111993
0.0143651
0.00957018
0.00105875
-0.00181557
-0.00235738
-0.00241419
-0.00148447
0.00112814
0.0055128
0.0107297
0.0139593
0.00945622
-0.000979082
-0.00326073
-0.00356571
-0.00336937
-0.00224301
0.000447738
0.00470869
0.00979998
0.0131313
0.00932342
-0.00325769
-0.00476408
-0.00482748
-0.0043754
-0.00305324
-0.000377135
0.00373438
0.00856321
0.0119609
0.00932676
-0.0044427
-0.00513923
-0.00511444
-0.00467758
-0.00342919
-0.000932303
0.00287569
0.00737135
0.0108394
0.00994265
-0.0107804
-0.0114322
-0.0115076
-0.0113661
-0.0103808
-0.00761989
-0.00245599
0.0048013
0.0116313
0.0128302
-0.00931806
-0.0109038
-0.011088
-0.0109497
-0.00989872
-0.00701522
-0.00154927
0.0062622
0.0132573
0.0126025
-0.0066264
-0.00915216
-0.00975613
-0.0101462
-0.00963519
-0.00707733
-0.00162388
0.00662831
0.0139473
0.0126067
-0.0042632
-0.00749931
-0.00849876
-0.00937943
-0.00933876
-0.00706567
-0.001708
0.0067623
0.0142713
0.012657
-0.00292105
-0.00653123
-0.00775783
-0.0089116
-0.00912501
-0.00704098
-0.0017382
0.00679641
0.0143747
0.0126863
-0.00292104
-0.00653122
-0.00775782
-0.00891159
-0.009125
-0.00704097
-0.0017382
0.00679641
0.0143747
0.0126863
-0.00426316
-0.00749928
-0.00849874
-0.00937941
-0.00933873
-0.00706565
-0.00170798
0.00676232
0.0142713
0.012657
-0.00662634
-0.00915211
-0.00975609
-0.0101461
-0.00963516
-0.00707731
-0.00162386
0.00662834
0.0139473
0.0126068
-0.00931799
-0.0109038
-0.0110879
-0.0109497
-0.00989868
-0.00701519
-0.00154926
0.00626222
0.0132575
0.0126025
-0.0107803
-0.0114321
-0.0115075
-0.011366
-0.0103808
-0.00761986
-0.00245598
0.00480126
0.0116311
0.0128301
-0.0205727
-0.0206409
-0.0204463
-0.020443
-0.0197
-0.0167003
-0.00979476
0.00154569
0.0143868
0.0210479
-0.0188663
-0.0200135
-0.020012
-0.0201406
-0.0195952
-0.016872
-0.0101465
0.0017176
0.0152107
0.0214015
-0.015901
-0.0181338
-0.0188056
-0.0198711
-0.0203886
-0.0186213
-0.0123973
-1.11464e-05
0.0145706
0.021414
-0.0133617
-0.0163879
-0.0176494
-0.0195057
-0.0208622
-0.0198205
-0.0139643
-0.00132802
0.0138997
0.0213279
-0.011943
-0.0153792
-0.0169664
-0.019238
-0.0210091
-0.0202838
-0.0146612
-0.00196483
0.0135283
0.0212507
-0.011943
-0.0153792
-0.0169664
-0.019238
-0.0210091
-0.0202838
-0.0146612
-0.00196483
0.0135283
0.0212507
-0.0133617
-0.0163879
-0.0176493
-0.0195057
-0.0208622
-0.0198205
-0.0139643
-0.00132801
0.0138997
0.021328
-0.015901
-0.0181337
-0.0188056
-0.019871
-0.0203885
-0.0186213
-0.0123973
-1.11274e-05
0.0145706
0.021414
-0.0188663
-0.0200135
-0.020012
-0.0201405
-0.0195952
-0.016872
-0.0101464
0.00171762
0.0152108
0.0214016
-0.0205726
-0.0206409
-0.0204462
-0.020443
-0.0197
-0.0167002
-0.00979474
0.00154569
0.0143868
0.021048
-0.0348925
-0.0326394
-0.0311787
-0.030767
-0.0301178
-0.026972
-0.018416
-0.00179951
0.0201467
0.038878
-0.0327437
-0.0318638
-0.0308329
-0.0309241
-0.0310355
-0.0290401
-0.0217441
-0.00531327
0.0178025
0.0389874
-0.0294861
-0.0297903
-0.0297339
-0.0312564
-0.0331038
-0.032925
-0.0269593
-0.0102212
0.0147268
0.0388279
-0.0268277
-0.0279422
-0.0286495
-0.0312486
-0.0343033
-0.0352817
-0.0300996
-0.0131825
0.0128088
0.0386886
-0.0253828
-0.026904
-0.0280146
-0.0311412
-0.034747
-0.0362272
-0.0313921
-0.0144328
0.011977
0.0386066
-0.0253828
-0.026904
-0.0280146
-0.0311412
-0.034747
-0.0362272
-0.0313921
-0.0144328
0.011977
0.0386066
-0.0268277
-0.0279421
-0.0286495
-0.0312486
-0.0343033
-0.0352817
-0.0300996
-0.0131825
0.0128088
0.0386886
-0.0294861
-0.0297903
-0.0297338
-0.0312563
-0.0331038
-0.032925
-0.0269593
-0.0102211
0.0147268
0.0388279
-0.0327436
-0.0318638
-0.0308328
-0.030924
-0.0310355
-0.0290401
-0.0217441
-0.00531327
0.0178025
0.0389875
-0.0348925
-0.0326393
-0.0311787
-0.030767
-0.0301178
-0.026972
-0.018416
-0.00179953
0.0201466
0.038878
-0.0575453
-0.046993
-0.0422079
-0.0401282
-0.0390155
-0.0355109
-0.025651
-0.00311836
0.0302893
0.0731979
-0.0542739
-0.0455235
-0.0416053
-0.0408091
-0.0412836
-0.0400246
-0.0331083
-0.0121193
0.0225213
0.0736602
-0.0501089
-0.0425964
-0.0398637
-0.0410609
-0.0439236
-0.0451072
-0.0402778
-0.0191949
0.0178037
0.0751045
-0.0470158
-0.0402622
-0.0383561
-0.0408431
-0.0451963
-0.0477547
-0.0439895
-0.0225966
0.0158222
0.0764642
-0.0454299
-0.0390404
-0.0375534
-0.0406308
-0.0456111
-0.0487096
-0.0453844
-0.0238394
0.0151905
0.0771227
-0.0454299
-0.0390404
-0.0375534
-0.0406308
-0.045611
-0.0487096
-0.0453844
-0.0238394
0.0151905
0.0771227
-0.0470158
-0.0402622
-0.038356
-0.0408431
-0.0451963
-0.0477547
-0.0439895
-0.0225966
0.0158222
0.0764642
-0.0501088
-0.0425964
-0.0398637
-0.0410609
-0.0439236
-0.0451072
-0.0402778
-0.0191949
0.0178037
0.0751045
-0.0542738
-0.0455235
-0.0416052
-0.040809
-0.0412835
-0.0400246
-0.0331083
-0.0121193
0.0225213
0.0736602
-0.0575452
-0.046993
-0.0422078
-0.0401281
-0.0390154
-0.0355109
-0.025651
-0.00311836
0.0302893
0.0731979
-0.0890567
-0.0612261
-0.0519608
-0.0463364
-0.0436035
-0.0390323
-0.0263574
0.00466826
0.051644
0.15087
-0.0813842
-0.0572573
-0.0505373
-0.0473371
-0.0469799
-0.0451486
-0.0361972
-0.00611775
0.0452758
0.162517
-0.0749714
-0.0524287
-0.0472704
-0.0466019
-0.04918
-0.050005
-0.0431225
-0.0114117
0.0463305
0.171583
-0.0709727
-0.0491286
-0.0448632
-0.0457199
-0.049999
-0.0522904
-0.0462285
-0.0132232
0.0476403
0.177295
-0.0691255
-0.047549
-0.0437039
-0.0452347
-0.0502182
-0.053092
-0.0473173
-0.0137913
0.0483612
0.179777
-0.0691255
-0.047549
-0.0437039
-0.0452347
-0.0502182
-0.053092
-0.0473173
-0.0137913
0.0483612
0.179777
-0.0709727
-0.0491286
-0.0448632
-0.0457199
-0.049999
-0.0522904
-0.0462285
-0.0132232
0.0476403
0.177295
-0.0749714
-0.0524287
-0.0472704
-0.0466018
-0.04918
-0.050005
-0.0431225
-0.0114117
0.0463305
0.171583
-0.0813841
-0.0572573
-0.0505372
-0.0473371
-0.0469799
-0.0451486
-0.0361972
-0.00611774
0.0452758
0.162517
-0.0890566
-0.061226
-0.0519608
-0.0463363
-0.0436035
-0.0390323
-0.0263574
0.00466827
0.051644
0.15087
-0.1993
-0.0738896
-0.0488765
-0.0404125
-0.0361226
-0.0293662
-0.012456
0.032778
0.119019
0.324653
-0.186993
-0.0611459
-0.0410538
-0.0370175
-0.0363975
-0.0329754
-0.0184624
0.029606
0.129527
0.359293
-0.178081
-0.0522009
-0.0343793
-0.0334338
-0.0360126
-0.0349736
-0.0214445
0.0297207
0.138853
0.380164
-0.172931
-0.0471345
-0.0303358
-0.0311147
-0.0355275
-0.0358028
-0.0225974
0.0302074
0.143479
0.390198
-0.170668
-0.0449545
-0.0285825
-0.0300883
-0.0352737
-0.0361083
-0.0230354
0.0304206
0.145244
0.394021
-0.170668
-0.0449544
-0.0285825
-0.0300883
-0.0352737
-0.0361083
-0.0230354
0.0304206
0.145244
0.394021
-0.172931
-0.0471345
-0.0303358
-0.0311147
-0.0355275
-0.0358028
-0.0225974
0.0302074
0.143479
0.390198
-0.178081
-0.0522009
-0.0343793
-0.0334338
-0.0360125
-0.0349736
-0.0214445
0.0297207
0.138853
0.380164
-0.186993
-0.0611459
-0.0410538
-0.0370175
-0.0363975
-0.0329753
-0.0184624
0.029606
0.129527
0.359293
-0.1993
-0.0738896
-0.0488765
-0.0404125
-0.0361226
-0.0293662
-0.012456
0.032778
0.119019
0.324653
)
;

boundaryField
{
    top
    {
        type            zeroGradient;
    }
    others
    {
        type            zeroGradient;
    }
}


// ************************************************************************* //
