/*--------------------------------*- C++ -*----------------------------------*\
  =========                 |
  \\      /  F ield         | OpenFOAM: The Open Source CFD Toolbox
   \\    /   O peration     | Website:  https://openfoam.org
    \\  /    A nd           | Version:  9
     \\/     M anipulation  |
\*---------------------------------------------------------------------------*/
FoamFile
{
    format      ascii;
    class       volVectorField;
    location    "0.82";
    object      U;
}
// * * * * * * * * * * * * * * * * * * * * * * * * * * * * * * * * * * * * * //

dimensions      [0 1 -1 0 0 0 0];

internalField   nonuniform List<vector> 
1000
(
(3.14763e-05 -0.000513135 0.000340824)
(-0.00139864 -0.000482256 0.00107752)
(-0.00457427 -0.000439672 0.00143877)
(-0.0079716 -0.000549872 0.00159811)
(-0.010889 -0.000859077 0.00156764)
(-0.0123601 -0.00132775 0.0012554)
(-0.011442 -0.00179168 0.000649586)
(-0.00787987 -0.00195917 -1.95238e-05)
(-0.002626 -0.00155915 -0.000217649)
(0.000112315 -0.000466822 0.000380051)
(-0.000149188 -0.00182482 0.000596801)
(-0.00343809 -0.00226015 0.002312)
(-0.0101613 -0.00234619 0.00307388)
(-0.0170767 -0.00268209 0.00317492)
(-0.0226838 -0.00344692 0.00268579)
(-0.0251889 -0.0045373 0.00150952)
(-0.0229549 -0.00552979 -0.000212282)
(-0.0156858 -0.0057194 -0.00174527)
(-0.00545296 -0.00452514 -0.00176552)
(-5.60253e-06 -0.0016731 0.000237107)
(-0.000350406 -0.00274089 0.000284569)
(-0.00500262 -0.00385785 0.00236139)
(-0.0141057 -0.00418449 0.00326364)
(-0.0232299 -0.00463563 0.00321868)
(-0.030345 -0.00549459 0.00229362)
(-0.0331565 -0.00664106 0.000418645)
(-0.0296599 -0.00753134 -0.00209809)
(-0.0196999 -0.00745917 -0.00401804)
(-0.00628726 -0.00588171 -0.00347469)
(0.00035341 -0.00249933 -4.47979e-05)
(-0.000498095 -0.00232773 -0.000134828)
(-0.00608125 -0.00341988 0.00200048)
(-0.0167596 -0.00375585 0.00292178)
(-0.0272852 -0.00411848 0.00274477)
(-0.0352692 -0.00474894 0.00150777)
(-0.0380475 -0.00555187 -0.00083)
(-0.0334572 -0.00608994 -0.00381784)
(-0.0216223 -0.00590222 -0.00584712)
(-0.00623193 -0.00465057 -0.00473104)
(0.000832015 -0.00209309 -0.00024035)
(-0.000578537 -0.000899945 -0.000396928)
(-0.00663999 -0.00134384 0.00172201)
(-0.0181099 -0.00148222 0.00263411)
(-0.0293174 -0.00161741 0.00238223)
(-0.0376857 -0.00184104 0.00098295)
(-0.0403792 -0.00211644 -0.0015879)
(-0.0351727 -0.00229319 -0.00477178)
(-0.0223668 -0.00220247 -0.00680217)
(-0.00603478 -0.00173638 -0.00535181)
(0.00113465 -0.000801186 -0.000328805)
(-0.00057854 0.00089999 -0.000396931)
(-0.00664 0.00134388 0.001722)
(-0.0181099 0.00148225 0.00263411)
(-0.0293174 0.00161743 0.00238223)
(-0.0376857 0.00184105 0.000982949)
(-0.0403792 0.00211645 -0.0015879)
(-0.0351727 0.0022932 -0.00477178)
(-0.0223668 0.00220248 -0.00680217)
(-0.00603478 0.00173638 -0.00535181)
(0.00113465 0.00080119 -0.000328804)
(-0.000498106 0.00232779 -0.000134837)
(-0.00608126 0.00341992 0.00200047)
(-0.0167596 0.00375588 0.00292178)
(-0.0272852 0.0041185 0.00274476)
(-0.0352692 0.00474896 0.00150777)
(-0.0380475 0.00555188 -0.000830001)
(-0.0334572 0.00608995 -0.00381784)
(-0.0216223 0.00590222 -0.00584712)
(-0.00623193 0.00465058 -0.00473103)
(0.000832015 0.00209309 -0.000240349)
(-0.000350433 0.002741 0.000284545)
(-0.00500267 0.0038579 0.00236137)
(-0.0141057 0.00418452 0.00326363)
(-0.0232299 0.00463565 0.00321868)
(-0.030345 0.0054946 0.00229362)
(-0.0331565 0.00664107 0.000418643)
(-0.0296599 0.00753135 -0.00209809)
(-0.0196999 0.00745917 -0.00401804)
(-0.00628726 0.00588171 -0.00347469)
(0.00035341 0.00249934 -4.47975e-05)
(-0.000149262 0.00182511 0.000596734)
(-0.00343819 0.00226024 0.00231198)
(-0.0101613 0.00234622 0.00307387)
(-0.0170767 0.00268211 0.00317491)
(-0.0226838 0.00344692 0.00268578)
(-0.0251889 0.00453731 0.00150951)
(-0.0229549 0.00552979 -0.000212283)
(-0.0156858 0.0057194 -0.00174527)
(-0.00545296 0.00452514 -0.00176552)
(-5.60314e-06 0.0016731 0.000237107)
(3.12431e-05 0.000513349 0.000340594)
(-0.00139894 0.00048231 0.00107746)
(-0.00457435 0.000439691 0.00143875)
(-0.00797164 0.000549879 0.0015981)
(-0.010889 0.000859079 0.00156764)
(-0.0123601 0.00132776 0.00125539)
(-0.011442 0.00179168 0.000649586)
(-0.00787987 0.00195917 -1.95235e-05)
(-0.002626 0.00155915 -0.000217648)
(0.000112315 0.000466823 0.000380051)
(-0.000623843 -0.00146559 0.00346858)
(-0.00409887 -0.00189118 0.00696411)
(-0.0101494 -0.00192984 0.00833813)
(-0.0163911 -0.00195892 0.00854148)
(-0.0216366 -0.00213446 0.00767278)
(-0.0243072 -0.00247796 0.00549855)
(-0.0228427 -0.00283325 0.00213821)
(-0.0165944 -0.00284938 -0.00134202)
(-0.00681064 -0.00209329 -0.00276394)
(-0.000654628 -0.000319896 -0.000504121)
(-0.0019599 -0.00434719 0.00580002)
(-0.0108556 -0.00612949 0.013239)
(-0.0252897 -0.006428 0.0159008)
(-0.0394171 -0.0065304 0.0153291)
(-0.0503655 -0.00694881 0.0118861)
(-0.0550174 -0.00771107 0.00549133)
(-0.0506781 -0.00840871 -0.00290618)
(-0.0365801 -0.00816187 -0.0101728)
(-0.0157877 -0.00609261 -0.0111024)
(-0.00214796 -0.00165138 -0.00290147)
(-0.0030453 -0.00580614 0.00560668)
(-0.0160634 -0.00874953 0.0144225)
(-0.0364743 -0.00933331 0.0173321)
(-0.0556978 -0.00944993 0.0157038)
(-0.069739 -0.00984094 0.00994539)
(-0.0747241 -0.0105284 0.000256261)
(-0.0675738 -0.0109941 -0.0114868)
(-0.0478485 -0.0103736 -0.0204014)
(-0.020137 -0.00787988 -0.0192352)
(-0.00252458 -0.00286089 -0.00516998)
(-0.00377008 -0.00470402 0.00473128)
(-0.0195827 -0.0072991 0.0137481)
(-0.0439488 -0.00783088 0.0164846)
(-0.0662916 -0.00789413 0.013946)
(-0.0819119 -0.00810924 0.00651768)
(-0.0865369 -0.00849653 -0.00530711)
(-0.0770671 -0.0086291 -0.0189252)
(-0.0536152 -0.00801726 -0.02828)
(-0.021822 -0.00615878 -0.0250009)
(-0.00236044 -0.00249211 -0.00667773)
(-0.00413055 -0.00178403 0.00411026)
(-0.0213559 -0.00279997 0.0130442)
(-0.047696 -0.00300904 0.0156037)
(-0.0715121 -0.00302341 0.0125548)
(-0.0877648 -0.00308042 0.00427005)
(-0.0920192 -0.0031906 -0.00856216)
(-0.0812605 -0.00319871 -0.0229452)
(-0.0559678 -0.00295198 -0.0323006)
(-0.0223194 -0.00228256 -0.0278119)
(-0.0021695 -0.000967144 -0.00737938)
(-0.00413055 0.00178407 0.00411025)
(-0.0213559 0.0028 0.0130442)
(-0.047696 0.00300906 0.0156037)
(-0.0715121 0.00302343 0.0125548)
(-0.0877648 0.00308043 0.00427005)
(-0.0920192 0.00319061 -0.00856216)
(-0.0812605 0.00319872 -0.0229452)
(-0.0559678 0.00295198 -0.0323006)
(-0.0223194 0.00228257 -0.0278119)
(-0.0021695 0.000967149 -0.00737937)
(-0.00377009 0.00470407 0.00473126)
(-0.0195827 0.00729913 0.0137481)
(-0.0439488 0.0078309 0.0164846)
(-0.0662916 0.00789415 0.013946)
(-0.0819119 0.00810926 0.00651768)
(-0.0865369 0.00849654 -0.00530711)
(-0.0770671 0.00862911 -0.0189252)
(-0.0536152 0.00801726 -0.02828)
(-0.021822 0.00615878 -0.0250009)
(-0.00236044 0.00249212 -0.00667773)
(-0.00304531 0.0058062 0.00560664)
(-0.0160634 0.00874958 0.0144224)
(-0.0364743 0.00933333 0.0173321)
(-0.0556978 0.00944995 0.0157038)
(-0.069739 0.00984095 0.00994539)
(-0.0747241 0.0105284 0.00025626)
(-0.0675738 0.0109941 -0.0114868)
(-0.0478485 0.0103736 -0.0204014)
(-0.020137 0.00787988 -0.0192352)
(-0.00252458 0.00286089 -0.00516999)
(-0.00195993 0.00434728 0.00579991)
(-0.0108557 0.00612954 0.0132389)
(-0.0252897 0.00642803 0.0159008)
(-0.0394171 0.00653042 0.0153291)
(-0.0503656 0.00694882 0.011886)
(-0.0550174 0.00771107 0.00549132)
(-0.0506782 0.00840871 -0.00290618)
(-0.0365801 0.00816187 -0.0101728)
(-0.0157877 0.00609261 -0.0111024)
(-0.00214796 0.00165138 -0.00290147)
(-0.0006239 0.00146564 0.00346829)
(-0.00409895 0.0018912 0.00696402)
(-0.0101494 0.00192985 0.0083381)
(-0.0163911 0.00195893 0.00854146)
(-0.0216366 0.00213447 0.00767277)
(-0.0243072 0.00247797 0.00549855)
(-0.0228427 0.00283325 0.00213821)
(-0.0165944 0.00284938 -0.00134202)
(-0.00681065 0.00209329 -0.00276394)
(-0.000654628 0.000319897 -0.00050412)
(-0.00109741 -0.00228199 0.0101482)
(-0.00597316 -0.00302415 0.0181923)
(-0.0138731 -0.00300484 0.0208272)
(-0.0219922 -0.00278048 0.0205896)
(-0.0291841 -0.00263886 0.0178275)
(-0.0336577 -0.00272467 0.0121546)
(-0.0332045 -0.00296285 0.00382868)
(-0.0260663 -0.00300605 -0.0049735)
(-0.0125903 -0.00222639 -0.00940589)
(-0.00218219 -5.19547e-05 -0.00465041)
(-0.00346986 -0.00645918 0.0169438)
(-0.016754 -0.00911001 0.033395)
(-0.0368121 -0.00913949 0.0381788)
(-0.0560772 -0.00838489 0.0354862)
(-0.0713834 -0.00775024 0.0263477)
(-0.0791276 -0.00759017 0.0108531)
(-0.0755768 -0.00773479 -0.00900142)
(-0.0582086 -0.0075031 -0.0268994)
(-0.028677 -0.00567879 -0.0313027)
(-0.00546444 -0.000952002 -0.0130995)
(-0.00541924 -0.0082776 0.0180579)
(-0.0253221 -0.0123029 0.037373)
(-0.0543285 -0.0123982 0.0421879)
(-0.0808274 -0.0112067 0.0366522)
(-0.100298 -0.00999672 0.0220917)
(-0.108388 -0.00921028 -0.000644041)
(-0.101156 -0.00873664 -0.027611)
(-0.0763439 -0.00815501 -0.0494166)
(-0.0369306 -0.00640856 -0.0502591)
(-0.00675827 -0.00196837 -0.0196438)
(-0.00673975 -0.00654662 0.0174026)
(-0.0311516 -0.00996987 0.0371631)
(-0.0660372 -0.0100337 0.0412593)
(-0.0967789 -0.00894325 0.033392)
(-0.118061 -0.00774759 0.0150978)
(-0.125342 -0.00680809 -0.0119902)
(-0.114989 -0.00613277 -0.042622)
(-0.085413 -0.00561152 -0.0654956)
(-0.0405121 -0.00455943 -0.0627378)
(-0.00703209 -0.0017283 -0.0236814)
(-0.00739787 -0.00245404 0.0167428)
(-0.0340761 -0.00377221 0.0363557)
(-0.071852 -0.00378914 0.039895)
(-0.104505 -0.00334805 0.0307566)
(-0.126358 -0.0028498 0.0106252)
(-0.132907 -0.00243445 -0.0183777)
(-0.120842 -0.00213541 -0.0503658)
(-0.0890145 -0.00193991 -0.0732942)
(-0.041767 -0.00161065 -0.068537)
(-0.00702532 -0.000669251 -0.0254888)
(-0.00739787 0.00245407 0.0167428)
(-0.0340761 0.00377224 0.0363557)
(-0.071852 0.00378917 0.039895)
(-0.104505 0.00334807 0.0307566)
(-0.126358 0.00284981 0.0106252)
(-0.132907 0.00243447 -0.0183777)
(-0.120842 0.00213542 -0.0503658)
(-0.0890145 0.00193991 -0.0732942)
(-0.041767 0.00161066 -0.068537)
(-0.00702532 0.000669255 -0.0254888)
(-0.00673975 0.00654665 0.0174026)
(-0.0311516 0.0099699 0.0371631)
(-0.0660372 0.0100337 0.0412593)
(-0.0967789 0.00894326 0.033392)
(-0.118061 0.0077476 0.0150978)
(-0.125342 0.0068081 -0.0119902)
(-0.114989 0.00613278 -0.042622)
(-0.085413 0.00561152 -0.0654956)
(-0.0405121 0.00455943 -0.0627378)
(-0.00703209 0.0017283 -0.0236814)
(-0.00541925 0.00827764 0.0180579)
(-0.0253221 0.0123029 0.0373729)
(-0.0543285 0.0123982 0.0421879)
(-0.0808274 0.0112067 0.0366522)
(-0.100298 0.00999673 0.0220917)
(-0.108388 0.00921029 -0.000644043)
(-0.101156 0.00873665 -0.0276111)
(-0.0763439 0.00815502 -0.0494166)
(-0.0369306 0.00640856 -0.0502591)
(-0.00675827 0.00196837 -0.0196438)
(-0.00346987 0.00645922 0.0169438)
(-0.016754 0.00911004 0.033395)
(-0.0368121 0.0091395 0.0381787)
(-0.0560772 0.0083849 0.0354862)
(-0.0713834 0.00775024 0.0263477)
(-0.0791276 0.00759017 0.0108531)
(-0.0755768 0.0077348 -0.00900142)
(-0.0582086 0.0075031 -0.0268994)
(-0.028677 0.00567879 -0.0313027)
(-0.00546444 0.000952004 -0.0130995)
(-0.00109742 0.00228201 0.0101481)
(-0.00597319 0.00302416 0.0181923)
(-0.0138731 0.00300485 0.0208272)
(-0.0219922 0.00278049 0.0205895)
(-0.0291841 0.00263886 0.0178275)
(-0.0336577 0.00272467 0.0121546)
(-0.0332045 0.00296285 0.00382868)
(-0.0260663 0.00300605 -0.0049735)
(-0.0125904 0.00222639 -0.00940588)
(-0.00218219 5.19563e-05 -0.00465041)
(-0.00146262 -0.00299075 0.0189595)
(-0.0072948 -0.00388699 0.0323228)
(-0.0163909 -0.00360237 0.0359762)
(-0.0259644 -0.00287421 0.0348587)
(-0.0353678 -0.00215602 0.0297665)
(-0.0428915 -0.00177568 0.0199535)
(-0.0455132 -0.00186585 0.00531548)
(-0.0394295 -0.00224072 -0.0112298)
(-0.0225832 -0.00197951 -0.0213286)
(-0.00548433 0.000131502 -0.0136481)
(-0.00467277 -0.00826671 0.0317129)
(-0.0212732 -0.0112943 0.0587999)
(-0.0454494 -0.0104088 0.0652873)
(-0.0687735 -0.00797134 0.0595322)
(-0.0886747 -0.00538326 0.0436159)
(-0.101625 -0.00356369 0.0174409)
(-0.102594 -0.00293119 -0.01694)
(-0.0857099 -0.00348459 -0.0506521)
(-0.0486737 -0.00352259 -0.0637123)
(-0.011775 -0.000167479 -0.0330943)
(-0.00731068 -0.0103396 0.0349468)
(-0.0325201 -0.0147496 0.0667517)
(-0.0679075 -0.0134313 0.0729245)
(-0.0999359 -0.00972154 0.0623652)
(-0.124712 -0.00558222 0.0379259)
(-0.138101 -0.00228066 0.000688713)
(-0.135112 -0.000695631 -0.0448957)
(-0.110052 -0.00122691 -0.0859074)
(-0.0614771 -0.00231897 -0.0956944)
(-0.0144591 -0.000667031 -0.0459403)
(-0.00909513 -0.00804134 0.0350682)
(-0.0401299 -0.011697 0.067755)
(-0.0827198 -0.0105115 0.0725932)
(-0.119478 -0.00725191 0.058331)
(-0.145822 -0.00356033 0.0284778)
(-0.15787 -0.000523367 -0.0147185)
(-0.151289 0.000915251 -0.0652479)
(-0.121176 0.000385687 -0.108327)
(-0.0669018 -0.000957533 -0.114459)
(-0.0153884 -0.000568168 -0.0530618)
(-0.00997777 -0.00298807 0.0346726)
(-0.0439016 -0.00437661 0.0672466)
(-0.0899388 -0.00390054 0.0711298)
(-0.128661 -0.00261689 0.0549335)
(-0.155235 -0.00116191 0.0226069)
(-0.166112 3.51269e-05 -0.0229153)
(-0.157572 0.000597546 -0.0750082)
(-0.125257 0.000362891 -0.118338)
(-0.0688226 -0.000220319 -0.122502)
(-0.0156676 -0.000213889 -0.0560317)
(-0.00997777 0.00298809 0.0346726)
(-0.0439016 0.00437663 0.0672466)
(-0.0899388 0.00390056 0.0711298)
(-0.128661 0.00261691 0.0549335)
(-0.155235 0.00116193 0.0226069)
(-0.166112 -3.51172e-05 -0.0229153)
(-0.157572 -0.000597539 -0.0750082)
(-0.125257 -0.000362886 -0.118338)
(-0.0688226 0.000220322 -0.122502)
(-0.0156676 0.000213892 -0.0560317)
(-0.00909513 0.00804136 0.0350682)
(-0.0401299 0.011697 0.067755)
(-0.0827198 0.0105115 0.0725932)
(-0.119478 0.00725193 0.058331)
(-0.145822 0.00356034 0.0284778)
(-0.15787 0.000523375 -0.0147185)
(-0.151289 -0.000915246 -0.0652479)
(-0.121176 -0.000385683 -0.108327)
(-0.0669018 0.000957537 -0.114459)
(-0.0153884 0.000568171 -0.0530618)
(-0.00731068 0.0103396 0.0349467)
(-0.0325201 0.0147497 0.0667517)
(-0.0679075 0.0134313 0.0729245)
(-0.0999359 0.00972155 0.0623652)
(-0.124712 0.00558223 0.0379259)
(-0.138101 0.00228066 0.000688708)
(-0.135112 0.000695635 -0.0448957)
(-0.110052 0.00122691 -0.0859074)
(-0.0614771 0.00231897 -0.0956944)
(-0.0144591 0.000667034 -0.0459403)
(-0.00467277 0.00826673 0.0317129)
(-0.0212732 0.0112943 0.0587999)
(-0.0454494 0.0104088 0.0652872)
(-0.0687735 0.00797135 0.0595322)
(-0.0886747 0.00538327 0.0436159)
(-0.101625 0.00356369 0.0174409)
(-0.102594 0.00293119 -0.01694)
(-0.0857099 0.0034846 -0.0506521)
(-0.0486737 0.0035226 -0.0637123)
(-0.011775 0.000167483 -0.0330943)
(-0.00146262 0.00299075 0.0189595)
(-0.00729482 0.00388699 0.0323227)
(-0.0163909 0.00360237 0.0359761)
(-0.0259644 0.00287421 0.0348587)
(-0.0353678 0.00215603 0.0297665)
(-0.0428915 0.00177568 0.0199535)
(-0.0455132 0.00186585 0.00531548)
(-0.0394295 0.00224073 -0.0112298)
(-0.0225833 0.00197951 -0.0213286)
(-0.00548433 -0.0001315 -0.0136481)
(-0.00199069 -0.00353899 0.0296863)
(-0.00853559 -0.00438998 0.0484455)
(-0.0179831 -0.00356381 0.05239)
(-0.0282416 -0.0019663 0.0497873)
(-0.0397781 -0.000242062 0.0420599)
(-0.0515189 0.00106679 0.0278435)
(-0.0596996 0.00139208 0.0058156)
(-0.057645 0.000432863 -0.0213247)
(-0.039174 -0.00074942 -0.0414367)
(-0.0120777 3.85287e-05 -0.0315619)
(-0.00587289 -0.00959727 0.0495132)
(-0.024781 -0.0124402 0.0878755)
(-0.0510767 -0.00986499 0.0952344)
(-0.0766573 -0.00470807 0.08576)
(-0.100544 0.00103277 0.0629392)
(-0.120152 0.00565364 0.0257979)
(-0.129347 0.00749602 -0.02519)
(-0.118004 0.00529515 -0.080507)
(-0.0779251 0.00101892 -0.111228)
(-0.0231836 0.000113982 -0.0696858)
(-0.00891049 -0.0117588 0.0553991)
(-0.0376067 -0.0158188 0.100701)
(-0.0763284 -0.0120984 0.107625)
(-0.111081 -0.00459267 0.0918869)
(-0.13973 0.00379856 0.0583347)
(-0.159398 0.0105273 0.00737041)
(-0.164337 0.0132221 -0.0583909)
(-0.144944 0.0101755 -0.125334)
(-0.0941616 0.00373496 -0.156225)
(-0.0275841 0.000209846 -0.091391)
(-0.0109101 -0.00900879 0.0566605)
(-0.0460841 -0.0123088 0.103518)
(-0.0924842 -0.00911481 0.108752)
(-0.131669 -0.00275628 0.0885539)
(-0.161024 0.00426416 0.0489457)
(-0.178271 0.00973531 -0.00834526)
(-0.179048 0.0116086 -0.0795539)
(-0.155106 0.00880848 -0.149903)
(-0.100231 0.00344993 -0.179136)
(-0.0292643 0.000229656 -0.102071)
(-0.0118764 -0.00332063 0.0567308)
(-0.0501876 -0.0045588 0.103637)
(-0.100116 -0.00331252 0.107682)
(-0.140885 -0.000858631 0.0852726)
(-0.169794 0.00182427 0.0431653)
(-0.185244 0.00387192 -0.0162149)
(-0.18388 0.00448106 -0.0887643)
(-0.158239 0.00334893 -0.159766)
(-0.102275 0.00133045 -0.188079)
(-0.0298847 9.98913e-05 -0.10622)
(-0.0118764 0.00332065 0.0567308)
(-0.0501876 0.00455882 0.103637)
(-0.100116 0.00331254 0.107682)
(-0.140885 0.000858644 0.0852726)
(-0.169794 -0.00182426 0.0431653)
(-0.185244 -0.00387192 -0.0162149)
(-0.18388 -0.00448105 -0.0887643)
(-0.158239 -0.00334892 -0.159766)
(-0.102275 -0.00133044 -0.188079)
(-0.0298847 -9.98887e-05 -0.10622)
(-0.0109101 0.0090088 0.0566605)
(-0.0460841 0.0123088 0.103518)
(-0.0924842 0.00911482 0.108752)
(-0.131669 0.00275629 0.0885538)
(-0.161024 -0.00426416 0.0489457)
(-0.178271 -0.00973531 -0.00834527)
(-0.179048 -0.0116086 -0.0795539)
(-0.155106 -0.00880848 -0.149903)
(-0.100231 -0.00344992 -0.179136)
(-0.0292643 -0.000229653 -0.102071)
(-0.00891049 0.0117588 0.0553991)
(-0.0376067 0.0158188 0.100701)
(-0.0763284 0.0120984 0.107625)
(-0.111081 0.00459267 0.0918869)
(-0.13973 -0.00379855 0.0583347)
(-0.159398 -0.0105273 0.00737041)
(-0.164337 -0.0132221 -0.0583909)
(-0.144944 -0.0101755 -0.125334)
(-0.0941616 -0.00373496 -0.156225)
(-0.0275841 -0.000209844 -0.091391)
(-0.00587289 0.00959728 0.0495132)
(-0.024781 0.0124402 0.0878755)
(-0.0510767 0.00986499 0.0952344)
(-0.0766573 0.00470807 0.0857599)
(-0.100544 -0.00103277 0.0629392)
(-0.120152 -0.00565363 0.0257979)
(-0.129347 -0.00749602 -0.02519)
(-0.118004 -0.00529514 -0.080507)
(-0.0779251 -0.00101891 -0.111228)
(-0.0231836 -0.000113979 -0.0696858)
(-0.00199069 0.00353899 0.0296863)
(-0.00853559 0.00438998 0.0484454)
(-0.0179831 0.00356382 0.05239)
(-0.0282416 0.0019663 0.0497873)
(-0.0397781 0.000242064 0.0420599)
(-0.0515189 -0.00106679 0.0278435)
(-0.0596996 -0.00139208 0.00581559)
(-0.057645 -0.00043286 -0.0213247)
(-0.039174 0.000749431 -0.0414367)
(-0.0120777 -3.85262e-05 -0.0315619)
(-0.00330781 -0.00395883 0.0425102)
(-0.0106916 -0.00452163 0.065211)
(-0.0190068 -0.00282676 0.0677175)
(-0.0281487 7.30289e-05 0.0625515)
(-0.0404822 0.00340509 0.0519458)
(-0.0564517 0.00635382 0.0336413)
(-0.072326 0.00776118 0.00421172)
(-0.0784006 0.00626047 -0.0359086)
(-0.0626669 0.00250179 -0.0716009)
(-0.0228866 -0.000321383 -0.0639422)
(-0.00780898 -0.0104685 0.0700166)
(-0.0281451 -0.01252 0.118287)
(-0.0532315 -0.0074893 0.124682)
(-0.0770287 0.00134478 0.110844)
(-0.101372 0.011394 0.0820061)
(-0.125879 0.0200243 0.0357346)
(-0.144667 0.0238722 -0.0308937)
(-0.144234 0.0194204 -0.111627)
(-0.110482 0.00819785 -0.171611)
(-0.0388678 -0.000803231 -0.130798)
(-0.010853 -0.0125164 0.0785449)
(-0.0409788 -0.0155591 0.136308)
(-0.0782114 -0.0086791 0.14278)
(-0.110139 0.00343791 0.12238)
(-0.137588 0.0167987 0.0823078)
(-0.160247 0.0274516 0.0214491)
(-0.173356 0.0310298 -0.0617161)
(-0.165093 0.0242221 -0.158177)
(-0.124354 0.0100832 -0.225017)
(-0.043631 -0.000487682 -0.163484)
(-0.0127274 -0.00942905 0.0809081)
(-0.0490781 -0.0119 0.141144)
(-0.0934005 -0.00623737 0.146143)
(-0.12855 0.00361277 0.12152)
(-0.15505 0.0141375 0.0760576)
(-0.173659 0.0219313 0.00980913)
(-0.181752 0.0236939 -0.0784434)
(-0.169673 0.0176535 -0.179663)
(-0.128017 0.00706445 -0.248492)
(-0.0454006 -0.000192854 -0.177935)
(-0.0135937 -0.00344484 0.0814326)
(-0.0528541 -0.0043662 0.142005)
(-0.100255 -0.0022066 0.145887)
(-0.136234 0.00151159 0.119283)
(-0.161405 0.00540454 0.071899)
(-0.177427 0.00814717 0.00432233)
(-0.183196 0.00858978 -0.0848816)
(-0.170187 0.00622437 -0.187349)
(-0.129128 0.00243214 -0.256972)
(-0.0461546 -3.67445e-05 -0.183322)
(-0.0135937 0.00344485 0.0814326)
(-0.0528541 0.00436622 0.142005)
(-0.100255 0.00220661 0.145887)
(-0.136234 -0.00151158 0.119283)
(-0.161405 -0.00540453 0.071899)
(-0.177427 -0.00814717 0.00432233)
(-0.183196 -0.00858977 -0.0848816)
(-0.170187 -0.00622437 -0.187349)
(-0.129128 -0.00243213 -0.256972)
(-0.0461546 3.67459e-05 -0.183322)
(-0.0127274 0.00942906 0.0809081)
(-0.0490781 0.0119 0.141144)
(-0.0934005 0.00623738 0.146143)
(-0.12855 -0.00361276 0.121519)
(-0.15505 -0.0141375 0.0760576)
(-0.173659 -0.0219313 0.00980913)
(-0.181752 -0.0236939 -0.0784434)
(-0.169673 -0.0176535 -0.179663)
(-0.128017 -0.00706444 -0.248492)
(-0.0454006 0.000192856 -0.177935)
(-0.010853 0.0125164 0.0785449)
(-0.0409788 0.0155591 0.136308)
(-0.0782114 0.00867911 0.14278)
(-0.110139 -0.0034379 0.12238)
(-0.137589 -0.0167987 0.0823078)
(-0.160247 -0.0274516 0.0214491)
(-0.173356 -0.0310298 -0.0617161)
(-0.165093 -0.0242221 -0.158177)
(-0.124354 -0.0100832 -0.225017)
(-0.043631 0.000487684 -0.163484)
(-0.00780898 0.0104685 0.0700166)
(-0.0281451 0.01252 0.118287)
(-0.0532315 0.0074893 0.124682)
(-0.0770287 -0.00134477 0.110844)
(-0.101372 -0.011394 0.0820061)
(-0.125879 -0.0200243 0.0357346)
(-0.144667 -0.0238722 -0.0308937)
(-0.144234 -0.0194204 -0.111627)
(-0.110482 -0.00819784 -0.171611)
(-0.0388678 0.000803232 -0.130798)
(-0.00330781 0.00395883 0.0425102)
(-0.0106916 0.00452164 0.065211)
(-0.0190068 0.00282676 0.0677175)
(-0.0281487 -7.30271e-05 0.0625515)
(-0.0404822 -0.00340509 0.0519458)
(-0.0564518 -0.00635382 0.0336413)
(-0.072326 -0.00776118 0.00421172)
(-0.0784006 -0.00626047 -0.0359086)
(-0.0626669 -0.00250179 -0.0716009)
(-0.0228866 0.000321384 -0.0639422)
(-0.00704596 -0.00459084 0.0594751)
(-0.0161607 -0.00470214 0.0810832)
(-0.0200349 -0.00187103 0.0786377)
(-0.0240863 0.00263797 0.0689825)
(-0.0333474 0.00794499 0.0552064)
(-0.0507373 0.0131171 0.0338758)
(-0.0743801 0.0163353 -0.00110296)
(-0.0924575 0.0146443 -0.05439)
(-0.0877191 0.00728484 -0.110776)
(-0.0362173 -0.00137679 -0.11746)
(-0.0126033 -0.0115018 0.0948842)
(-0.0341778 -0.0123951 0.147007)
(-0.0519399 -0.00452717 0.148241)
(-0.0659746 0.00817518 0.128786)
(-0.0820707 0.0226779 0.0957148)
(-0.10349 0.0357738 0.04507)
(-0.127596 0.0424377 -0.0305429)
(-0.14041 0.0359638 -0.134179)
(-0.127088 0.0159122 -0.233225)
(-0.050023 -0.00438815 -0.221186)
(-0.0153146 -0.0131443 0.105172)
(-0.0452396 -0.01493 0.169422)
(-0.0731658 -0.00490547 0.171991)
(-0.0925412 0.0112901 0.147245)
(-0.108251 0.0288574 0.104507)
(-0.123891 0.0429829 0.0409083)
(-0.13896 0.0477137 -0.0501914)
(-0.142927 0.0372764 -0.171722)
(-0.128393 0.0144432 -0.285722)
(-0.0509319 -0.00425917 -0.263336)
(-0.0167459 -0.00964289 0.107973)
(-0.0516424 -0.0111802 0.175708)
(-0.085079 -0.00330272 0.177681)
(-0.105905 0.00927656 0.14999)
(-0.118828 0.0223532 0.103522)
(-0.128625 0.0318816 0.0361464)
(-0.137516 0.0336158 -0.058898)
(-0.137997 0.0246156 -0.186063)
(-0.126299 0.00864499 -0.305979)
(-0.0513905 -0.00269152 -0.280387)
(-0.0173501 -0.00347768 0.108637)
(-0.0544556 -0.00405822 0.177034)
(-0.0900963 -0.00112192 0.178282)
(-0.110901 0.00351966 0.149273)
(-0.121772 0.00822346 0.10175)
(-0.128489 0.0114478 0.0338404)
(-0.134982 0.0117267 -0.0617717)
(-0.135078 0.00828047 -0.190741)
(-0.125682 0.0027599 -0.313103)
(-0.0519117 -0.000874414 -0.286684)
(-0.0173501 0.00347768 0.108637)
(-0.0544556 0.00405823 0.177034)
(-0.0900963 0.00112193 0.178282)
(-0.110901 -0.00351966 0.149273)
(-0.121772 -0.00822345 0.10175)
(-0.128489 -0.0114478 0.0338404)
(-0.134982 -0.0117267 -0.0617717)
(-0.135078 -0.00828047 -0.190741)
(-0.125682 -0.0027599 -0.313103)
(-0.0519117 0.000874415 -0.286684)
(-0.0167459 0.0096429 0.107973)
(-0.0516424 0.0111802 0.175708)
(-0.085079 0.00330273 0.177681)
(-0.105905 -0.00927656 0.14999)
(-0.118828 -0.0223532 0.103522)
(-0.128625 -0.0318816 0.0361464)
(-0.137516 -0.0336158 -0.058898)
(-0.137997 -0.0246156 -0.186063)
(-0.126299 -0.00864499 -0.305979)
(-0.0513905 0.00269152 -0.280387)
(-0.0153146 0.0131443 0.105172)
(-0.0452396 0.0149301 0.169422)
(-0.0731658 0.00490547 0.171991)
(-0.0925412 -0.0112901 0.147245)
(-0.108251 -0.0288574 0.104507)
(-0.123891 -0.0429829 0.0409083)
(-0.13896 -0.0477137 -0.0501914)
(-0.142927 -0.0372764 -0.171722)
(-0.128393 -0.0144432 -0.285722)
(-0.0509319 0.00425918 -0.263336)
(-0.0126033 0.0115018 0.0948842)
(-0.0341778 0.0123951 0.147007)
(-0.0519399 0.00452717 0.148241)
(-0.0659746 -0.00817518 0.128786)
(-0.0820708 -0.0226779 0.0957148)
(-0.10349 -0.0357738 0.04507)
(-0.127596 -0.0424377 -0.0305429)
(-0.14041 -0.0359638 -0.134179)
(-0.127088 -0.0159122 -0.233225)
(-0.050023 0.00438815 -0.221186)
(-0.00704596 0.00459084 0.0594751)
(-0.0161607 0.00470214 0.0810832)
(-0.0200349 0.00187104 0.0786377)
(-0.0240863 -0.00263797 0.0689825)
(-0.0333474 -0.00794499 0.0552064)
(-0.0507373 -0.0131171 0.0338758)
(-0.0743801 -0.0163353 -0.00110296)
(-0.0924575 -0.0146443 -0.05439)
(-0.0877191 -0.00728484 -0.110776)
(-0.0362173 0.00137679 -0.11746)
(-0.0164924 -0.00627328 0.0819179)
(-0.0281046 -0.00638078 0.0926688)
(-0.0177321 -0.00255383 0.0808679)
(-0.00842861 0.00343364 0.0645821)
(-0.006997 0.0104235 0.0476741)
(-0.0186474 0.0176942 0.0255314)
(-0.0455211 0.0232711 -0.0111795)
(-0.0762244 0.0218636 -0.0738778)
(-0.0964944 0.0102377 -0.153187)
(-0.0418426 -0.0061262 -0.196144)
(-0.0254855 -0.0143894 0.122795)
(-0.0494032 -0.015097 0.167459)
(-0.0445248 -0.00540777 0.158479)
(-0.0333241 0.00970414 0.13129)
(-0.0257891 0.0268414 0.0962414)
(-0.0284615 0.0432183 0.0485204)
(-0.0460379 0.0537637 -0.0237388)
(-0.0677878 0.0474057 -0.137175)
(-0.0947892 0.0188779 -0.274932)
(-0.0358289 -0.0144923 -0.326924)
(-0.0282766 -0.0152196 0.132786)
(-0.0588597 -0.0169119 0.192483)
(-0.0606867 -0.00559056 0.186918)
(-0.0502456 0.011912 0.156457)
(-0.0376066 0.0308186 0.114421)
(-0.0293034 0.0468217 0.0569249)
(-0.0332189 0.0541693 -0.0271377)
(-0.0430444 0.0433384 -0.156986)
(-0.0743652 0.0137181 -0.315389)
(-0.0274328 -0.0126324 -0.368265)
(-0.0292855 -0.0106307 0.135046)
(-0.0632092 -0.0121006 0.199318)
(-0.0684735 -0.00363832 0.194639)
(-0.0577916 0.00919464 0.162999)
(-0.0414596 0.0224782 0.118996)
(-0.0265016 0.0327046 0.0591177)
(-0.0235105 0.0359084 -0.0278175)
(-0.029263 0.0267597 -0.163083)
(-0.0659289 0.00734345 -0.329516)
(-0.0256502 -0.00748025 -0.38353)
(-0.0296034 -0.00374187 0.135478)
(-0.0648255 -0.00429505 0.200707)
(-0.0712667 -0.00121297 0.195942)
(-0.0600412 0.00339658 0.163825)
(-0.0417648 0.00803906 0.119487)
(-0.0239671 0.0114135 0.0594376)
(-0.0187551 0.0121783 -0.027953)
(-0.0241966 0.00874199 -0.165129)
(-0.0640502 0.00224089 -0.334662)
(-0.0258477 -0.00235607 -0.389169)
(-0.0296034 0.00374187 0.135478)
(-0.0648255 0.00429505 0.200707)
(-0.0712667 0.00121297 0.195942)
(-0.0600412 -0.00339657 0.163825)
(-0.0417648 -0.00803906 0.119487)
(-0.0239671 -0.0114135 0.0594376)
(-0.0187551 -0.0121783 -0.027953)
(-0.0241966 -0.00874199 -0.165129)
(-0.0640502 -0.00224089 -0.334662)
(-0.0258477 0.00235607 -0.389169)
(-0.0292855 0.0106307 0.135046)
(-0.0632092 0.0121006 0.199318)
(-0.0684735 0.00363832 0.194639)
(-0.0577916 -0.00919464 0.162999)
(-0.0414596 -0.0224782 0.118996)
(-0.0265016 -0.0327046 0.0591177)
(-0.0235105 -0.0359084 -0.0278175)
(-0.029263 -0.0267597 -0.163083)
(-0.0659289 -0.00734345 -0.329516)
(-0.0256502 0.00748025 -0.38353)
(-0.0282766 0.0152196 0.132786)
(-0.0588597 0.0169119 0.192483)
(-0.0606867 0.00559056 0.186918)
(-0.0502457 -0.011912 0.156457)
(-0.0376066 -0.0308186 0.114421)
(-0.0293034 -0.0468217 0.0569249)
(-0.033219 -0.0541693 -0.0271377)
(-0.0430444 -0.0433384 -0.156986)
(-0.0743652 -0.0137181 -0.315389)
(-0.0274328 0.0126324 -0.368265)
(-0.0254855 0.0143894 0.122795)
(-0.0494032 0.015097 0.167459)
(-0.0445248 0.00540777 0.158479)
(-0.0333241 -0.00970414 0.13129)
(-0.0257891 -0.0268414 0.0962414)
(-0.0284615 -0.0432183 0.0485204)
(-0.0460379 -0.0537637 -0.0237388)
(-0.0677878 -0.0474057 -0.137175)
(-0.0947892 -0.0188779 -0.274932)
(-0.0358289 0.0144923 -0.326924)
(-0.0164924 0.00627328 0.0819179)
(-0.0281046 0.00638078 0.0926688)
(-0.0177321 0.00255383 0.0808679)
(-0.00842861 -0.00343364 0.0645821)
(-0.006997 -0.0104235 0.0476741)
(-0.0186474 -0.0176942 0.0255314)
(-0.0455211 -0.0232711 -0.0111795)
(-0.0762244 -0.0218636 -0.0738778)
(-0.0964944 -0.0102377 -0.153187)
(-0.0418426 0.0061262 -0.196144)
(-0.0238336 -0.0112244 0.150179)
(-0.0202111 -0.0121098 0.0981645)
(0.0282806 -0.00748251 0.062887)
(0.0625986 -0.00089416 0.0414916)
(0.0833346 0.00652522 0.0250042)
(0.0854705 0.014407 0.00713891)
(0.0631237 0.0216135 -0.0214654)
(0.025561 0.0207982 -0.0789979)
(-0.0421213 0.00505698 -0.174189)
(-0.0068054 -0.017939 -0.259831)
(-0.0424821 -0.0230262 0.209702)
(-0.0414266 -0.0261926 0.169902)
(0.0236196 -0.0167686 0.128302)
(0.0795555 -0.00247952 0.0960665)
(0.124242 0.0138348 0.0662996)
(0.152102 0.0303387 0.0323849)
(0.150225 0.0445525 -0.0171156)
(0.131067 0.0425493 -0.107541)
(0.0401688 0.00989754 -0.256514)
(0.0437583 -0.0320752 -0.369662)
(-0.0477552 -0.0209522 0.219948)
(-0.0509737 -0.0259727 0.190482)
(0.0131791 -0.0171555 0.15195)
(0.0737927 -0.00277509 0.118424)
(0.127436 0.0135705 0.0848187)
(0.169257 0.0289617 0.0450172)
(0.181583 0.0401019 -0.0114715)
(0.17679 0.0353406 -0.110592)
(0.0810332 0.00562112 -0.275316)
(0.0632311 -0.0228258 -0.395267)
(-0.0487814 -0.0134255 0.220982)
(-0.0537656 -0.0172613 0.194656)
(0.00914163 -0.0112753 0.157684)
(0.0709869 -0.00155198 0.1244)
(0.127696 0.00919211 0.0901894)
(0.17473 0.0188177 0.0489479)
(0.191923 0.024864 -0.00974827)
(0.191229 0.0207597 -0.111779)
(0.0911329 0.00324161 -0.281947)
(0.0663045 -0.0119918 -0.403945)
(-0.0488324 -0.00453345 0.220788)
(-0.0542083 -0.00590949 0.194996)
(0.00842979 -0.00380644 0.158348)
(0.070849 -0.000439596 0.125194)
(0.128618 0.00319953 0.0910533)
(0.177224 0.00635983 0.0497196)
(0.195525 0.00818758 -0.0095263)
(0.195053 0.00667527 -0.112682)
(0.0922946 0.00108371 -0.28471)
(0.0659393 -0.00356995 -0.407109)
(-0.0488324 0.00453346 0.220788)
(-0.0542083 0.0059095 0.194996)
(0.00842979 0.00380644 0.158348)
(0.070849 0.000439599 0.125194)
(0.128618 -0.00319953 0.0910533)