/*--------------------------------*- C++ -*----------------------------------*\
  =========                 |
  \\      /  F ield         | OpenFOAM: The Open Source CFD Toolbox
   \\    /   O peration     | Website:  https://openfoam.org
    \\  /    A nd           | Version:  9
     \\/     M anipulation  |
\*---------------------------------------------------------------------------*/
FoamFile
{
    format      ascii;
    class       volScalarField;
    location    "0.63";
    object      p;
}
// * * * * * * * * * * * * * * * * * * * * * * * * * * * * * * * * * * * * * //

dimensions      [0 2 -2 0 0 0 0];

internalField   nonuniform List<scalar> 
1000
(
-2.08572e-06
-0.000479102
-0.00014278
0.000947975
0.00285653
0.00545198
0.00827797
0.0105804
0.0116594
0.0108142
0.000167622
-0.000711374
-0.000480495
0.000653414
0.00273846
0.00562637
0.00878836
0.0113078
0.0123323
0.0109449
0.000918913
-0.000226193
-3.23984e-05
0.00119938
0.00352663
0.0067765
0.0103143
0.0129817
0.0137682
0.0116517
0.00172638
0.000405958
0.000587083
0.00191653
0.00446451
0.00804411
0.0118468
0.0145748
0.0151116
0.0124153
0.00223176
0.000829313
0.00100976
0.00239703
0.00506651
0.00881563
0.0127635
0.0155062
0.015893
0.0128899
0.00223163
0.000829196
0.00100966
0.00239695
0.00506645
0.00881558
0.0127634
0.0155061
0.015893
0.0128899
0.00172594
0.000405586
0.000586801
0.00191629
0.00446434
0.00804397
0.0118467
0.0145747
0.0151116
0.0124152
0.000918027
-0.000226889
-3.28953e-05
0.00119898
0.00352636
0.00677629
0.0103142
0.0129815
0.0137681
0.0116516
0.000165819
-0.000712544
-0.000481247
0.000652865
0.0027381
0.00562607
0.00878812
0.0113075
0.0123321
0.0109448
-5.91114e-06
-0.000480852
-0.00014375
0.000947354
0.00285613
0.00545166
0.00827771
0.0105802
0.0116592
0.010814
0.000386618
-4.00091e-05
0.000318157
0.00128701
0.00295552
0.00526822
0.00786264
0.0100787
0.0111778
0.0100547
0.000919904
1.89416e-05
0.000296188
0.00125408
0.00295496
0.00535766
0.0080939
0.0104341
0.0114943
0.00971918
0.00209737
0.000803054
0.00101575
0.00197209
0.00374034
0.00628057
0.00925608
0.0116761
0.0125358
0.0100185
0.00320556
0.00161496
0.0017706
0.00272862
0.00457235
0.00728545
0.0104226
0.0128735
0.0135311
0.0104713
0.00386206
0.00211522
0.00223898
0.00319821
0.00508472
0.00789807
0.0111209
0.0135756
0.0141136
0.0107854
0.00386195
0.00211512
0.00223889
0.00319814
0.00508466
0.00789802
0.0111208
0.0135756
0.0141135
0.0107854
0.0032052
0.00161464
0.00177035
0.00272841
0.0045722
0.00728532
0.0104225
0.0128734
0.013531
0.0104712
0.0020967
0.000802475
0.00101531
0.00197174
0.00374009
0.00628037
0.0092559
0.0116759
0.0125357
0.0100184
0.000918747
1.80639e-05
0.000295568
0.00125361
0.00295463
0.00535739
0.00809366
0.0104339
0.0114942
0.00971904
0.000384833
-4.11645e-05
0.000317398
0.00128649
0.00295514
0.00526792
0.00786238
0.0100785
0.0111776
0.0100546
-0.000947285
-0.00150724
-0.00126058
-0.00048188
0.00101951
0.00335878
0.00631646
0.00921661
0.0109766
0.009681
-9.65052e-05
-0.00129513
-0.00113337
-0.000361877
0.00117481
0.00363031
0.00678203
0.00985344
0.0115428
0.00910853
0.00158983
-0.000176796
-0.000136024
0.000548255
0.00206503
0.00463518
0.0079895
0.0111873
0.0126793
0.00920651
0.00311173
0.000917747
0.000842501
0.00144224
0.00294507
0.00560795
0.00910613
0.0123541
0.0136466
0.00947875
0.00399235
0.00157289
0.00142982
0.00198026
0.00347717
0.00618851
0.00975125
0.0130047
0.0141797
0.00968929
0.00399226
0.00157281
0.00142975
0.0019802
0.00347712
0.00618846
0.0097512
0.0130047
0.0141797
0.00968926
0.00311146
0.000917508
0.00084229
0.00144207
0.00294493
0.00560782
0.00910601
0.012354
0.0136465
0.00947867
0.00158935
-0.000177224
-0.00013638
0.000547967
0.00206481
0.00463498
0.00798932
0.0111871
0.0126792
0.00920638
-9.72377e-05
-0.00129574
-0.00113385
-0.000362256
0.00117453
0.00363005
0.0067818
0.00985325
0.0115426
0.00910836
-0.000948239
-0.00150798
-0.00126116
-0.000482307
0.00101917
0.0033585
0.0063162
0.0092164
0.0109764
0.00968082
-0.00439284
-0.00507902
-0.00499719
-0.00448552
-0.0031792
-0.000656044
0.00314663
0.00761625
0.0110612
0.0101712
-0.00322048
-0.00469813
-0.00470486
-0.00418333
-0.00280799
-0.000113419
0.00398753
0.00879023
0.0121694
0.00955426
-0.00100899
-0.00323173
-0.00346173
-0.00317715
-0.00198636
0.000719947
0.00497706
0.0100361
0.0133425
0.0095554
0.000948458
-0.0018335
-0.00227951
-0.00222708
-0.00121765
0.00142404
0.00579404
0.0109753
0.0141766
0.00969241
0.002067
-0.00100893
-0.00158143
-0.00166374
-0.000754253
0.00185124
0.00624232
0.0114532
0.0145872
0.00980913
0.00206692
-0.00100901
-0.0015815
-0.0016638
-0.000754305
0.0018512
0.00624227
0.0114532
0.0145872
0.00980909
0.000948244
-0.0018337
-0.00227971
-0.00222725
-0.00121779
0.00142392
0.00579393
0.0109752
0.0141765
0.00969232
-0.00100934
-0.00323206
-0.00346202
-0.00317741
-0.00198658
0.000719765
0.00497689
0.0100359
0.0133424
0.00955526
-0.00322097
-0.00469856
-0.00470525
-0.00418366
-0.00280827
-0.000113658
0.00398732
0.00879004
0.0121692
0.00955408
-0.0043934
-0.00507951
-0.00499764
-0.00448587
-0.00317952
-0.000656301
0.00314639
0.00761604
0.011061
0.010171
-0.010637
-0.011282
-0.011295
-0.0110749
-0.0100401
-0.00726114
-0.00211953
0.00509394
0.0118825
0.0130782
-0.00917906
-0.0107478
-0.0108718
-0.01066
-0.00955507
-0.00666377
-0.00121843
0.00655163
0.0135094
0.0128487
-0.00654177
-0.00902268
-0.00954398
-0.00983821
-0.00926236
-0.00668777
-0.00125313
0.00695095
0.0142194
0.0128645
-0.00424821
-0.00740696
-0.00829877
-0.00905912
-0.00893899
-0.0066481
-0.00130213
0.00711723
0.0145657
0.0129241
-0.0029533
-0.00646538
-0.0075692
-0.00858909
-0.00871366
-0.0065974
-0.00131152
0.0071703
0.0146825
0.0129592
-0.00295337
-0.00646545
-0.00756926
-0.00858913
-0.0087137
-0.00659744
-0.00131155
0.00717026
0.0146825
0.0129591
-0.00424839
-0.00740713
-0.00829894
-0.00905925
-0.00893911
-0.0066482
-0.00130224
0.00711713
0.0145656
0.012924
-0.00654204
-0.00902294
-0.00954423
-0.00983842
-0.00926255
-0.00668793
-0.0012533
0.00695079
0.0142192
0.0128643
-0.00917943
-0.0107481
-0.0108721
-0.0106603
-0.00955531
-0.00666398
-0.00121864
0.00655143
0.0135092
0.0128485
-0.0106374
-0.0112824
-0.0112954
-0.0110752
-0.0100404
-0.00726137
-0.00211976
0.00509372
0.0118823
0.013078
-0.0203259
-0.0203984
-0.0201495
-0.0200782
-0.0192957
-0.0163001
-0.00943404
0.00185446
0.014644
0.0212852
-0.0186083
-0.0197627
-0.0197121
-0.0197781
-0.0191959
-0.0164723
-0.00977231
0.00204402
0.0154847
0.0216449
-0.0156717
-0.0178932
-0.0184955
-0.0194788
-0.0199469
-0.0181729
-0.0119734
0.000361204
0.014878
0.021671
-0.0131787
-0.0161686
-0.0173373
-0.0190908
-0.0203891
-0.0193316
-0.0135034
-0.000918925
0.0142351
0.0215971
-0.0117936
-0.0151766
-0.0166573
-0.0188154
-0.0205258
-0.0197952
-0.0141858
-0.00153724
0.0138783
0.0215265
-0.0117936
-0.0151766
-0.0166574
-0.0188154
-0.0205258
-0.0197952
-0.0141858
-0.00153728
0.0138783
0.0215265
-0.0131789
-0.0161687
-0.0173374
-0.0190909
-0.0203892
-0.0193317
-0.0135035
-0.000919041
0.014235
0.021597
-0.0156719
-0.0178935
-0.0184957
-0.019479
-0.0199471
-0.018173
-0.0119736
0.000361021
0.0148778
0.0216708
-0.0186086
-0.019763
-0.0197124
-0.0197784
-0.0191961
-0.0164725
-0.00977252
0.00204381
0.0154845
0.0216447
-0.0203263
-0.0203987
-0.0201498
-0.0200784
-0.019296
-0.0163003
-0.00943428
0.00185422
0.0146437
0.021285
-0.0345662
-0.0323413
-0.0308436
-0.0303819
-0.0297101
-0.0265826
-0.0180633
-0.00151384
0.0203731
0.0390733
-0.0323927
-0.0315555
-0.0304977
-0.0305424
-0.0306292
-0.0286447
-0.0213795
-0.0050001
0.0180583
0.0391923
-0.0291379
-0.0294814
-0.0293863
-0.0308494
-0.0326679
-0.0325025
-0.0265689
-0.0098803
0.0150085
0.039038
-0.0265009
-0.0276426
-0.0282962
-0.0308255
-0.0338542
-0.034852
-0.0297014
-0.0128278
0.0131063
0.0389017
-0.0250747
-0.0266132
-0.0276609
-0.0307139
-0.0342977
-0.0358022
-0.030996
-0.014074
0.012281
0.0388204
-0.0250747
-0.0266132
-0.0276609
-0.0307139
-0.0342977
-0.0358022
-0.0309961
-0.0140741
0.012281
0.0388203
-0.026501
-0.0276427
-0.0282963
-0.0308256
-0.0338543
-0.0348522
-0.0297015
-0.0128279
0.0131062
0.0389016
-0.0291381
-0.0294815
-0.0293864
-0.0308496
-0.032668
-0.0325026
-0.026569
-0.00988049
0.0150083
0.0390378
-0.0323929
-0.0315557
-0.0304979
-0.0305426
-0.0306295
-0.0286449
-0.0213797
-0.00500033
0.0180581
0.0391921
-0.0345664
-0.0323415
-0.0308438
-0.0303821
-0.0297103
-0.0265828
-0.0180635
-0.00151408
0.0203728
0.039073
-0.0572023
-0.0467036
-0.0418909
-0.039772
-0.0386415
-0.0351666
-0.0253638
-0.00289917
0.0304449
0.0733144
-0.0538987
-0.0452367
-0.0413001
-0.040461
-0.0409104
-0.0396745
-0.0328066
-0.011886
0.0226931
0.0737673
-0.0497235
-0.0423148
-0.0395634
-0.0407075
-0.0435458
-0.0447646
-0.0399878
-0.0189783
0.0179656
0.0751866
-0.0466381
-0.0399882
-0.0380584
-0.0404898
-0.0448303
-0.0474401
-0.0437249
-0.0224037
0.0159715
0.0765249
-0.0450615
-0.0387716
-0.0372569
-0.0402806
-0.0452586
-0.0484199
-0.0451389
-0.0236619
0.0153315
0.0771712
-0.0450616
-0.0387716
-0.0372569
-0.0402806
-0.0452587
-0.0484199
-0.0451389
-0.0236619
0.0153314
0.0771712
-0.0466382
-0.0399883
-0.0380585
-0.0404899
-0.0448304
-0.0474402
-0.043725
-0.0224038
0.0159714
0.0765248
-0.0497237
-0.0423149
-0.0395635
-0.0407076
-0.043546
-0.0447647
-0.039988
-0.0189784
0.0179654
0.0751864
-0.0538989
-0.0452369
-0.0413002
-0.0404612
-0.0409106
-0.0396748
-0.0328068
-0.0118862
0.0226929
0.0737671
-0.0572024
-0.0467038
-0.0418911
-0.0397722
-0.0386417
-0.0351669
-0.0253641
-0.00289942
0.0304446
0.0733142
-0.088775
-0.0610049
-0.0517157
-0.0460395
-0.0432796
-0.0387327
-0.0261377
0.00480612
0.0516989
0.150889
-0.0810945
-0.0570833
-0.050312
-0.0470513
-0.0466544
-0.0448471
-0.0359863
-0.00599625
0.045306
0.162505
-0.0746895
-0.0522882
-0.0470771
-0.0463341
-0.0488691
-0.0497304
-0.042954
-0.0113411
0.0463034
0.171525
-0.0707025
-0.049009
-0.0446847
-0.045466
-0.0497146
-0.0520575
-0.0461072
-0.013195
0.0475823
0.177203
-0.068863
-0.0474375
-0.0435287
-0.0449874
-0.0499529
-0.0528884
-0.0472251
-0.0137866
0.0482856
0.179666
-0.068863
-0.0474375
-0.0435288
-0.0449874
-0.0499529
-0.0528885
-0.0472251
-0.0137866
0.0482855
0.179666
-0.0707026
-0.0490091
-0.0446848
-0.0454661
-0.0497147
-0.0520576
-0.0461073
-0.0131951
0.0475822
0.177202
-0.0746897
-0.0522883
-0.0470772
-0.0463342
-0.0488692
-0.0497306
-0.0429542
-0.0113413
0.0463032
0.171525
-0.0810947
-0.0570835
-0.0503121
-0.0470515
-0.0466546
-0.0448473
-0.0359865
-0.0059965
0.0453058
0.162505
-0.0887752
-0.0610051
-0.0517159
-0.0460397
-0.0432799
-0.0387329
-0.0261379
0.00480586
0.0516986
0.150889
-0.19908
-0.0737325
-0.0486913
-0.0401696
-0.0358415
-0.0290983
-0.0122413
0.0329038
0.119059
0.324652
-0.186804
-0.061053
-0.0409201
-0.036798
-0.0361178
-0.0327011
-0.0182568
0.0297021
0.129528
0.35925
-0.177929
-0.0521696
-0.0342961
-0.0332446
-0.035755
-0.03473
-0.0212848
0.0297602
0.138805
0.380077
-0.172806
-0.0471371
-0.0302749
-0.0309419
-0.0352952
-0.0355997
-0.0224859
0.0302019
0.143392
0.390075
-0.170554
-0.0449674
-0.0285248
-0.0299199
-0.0350558
-0.035931
-0.0229532
0.0303899
0.145135
0.393879
-0.170554
-0.0449674
-0.0285248
-0.0299199
-0.0350559
-0.0359311
-0.0229533
0.0303899
0.145135
0.393879
-0.172806
-0.0471372
-0.030275
-0.030942
-0.0352953
-0.0355999
-0.022486
0.0302018
0.143392
0.390075
-0.177929
-0.0521697
-0.0342962
-0.0332447
-0.0357552
-0.0347302
-0.021285
0.02976
0.138805
0.380077
-0.186804
-0.0610532
-0.0409203
-0.0367982
-0.036118
-0.0327013
-0.018257
0.0297019
0.129527
0.35925
-0.199081
-0.0737327
-0.0486915
-0.0401698
-0.0358417
-0.0290985
-0.0122415
0.0329036
0.119058
0.324651
)
;

boundaryField
{
    top
    {
        type            zeroGradient;
    }
    others
    {
        type            zeroGradient;
    }
}


// ************************************************************************* //
