/*--------------------------------*- C++ -*----------------------------------*\
  =========                 |
  \\      /  F ield         | OpenFOAM: The Open Source CFD Toolbox
   \\    /   O peration     | Website:  https://openfoam.org
    \\  /    A nd           | Version:  9
     \\/     M anipulation  |
\*---------------------------------------------------------------------------*/
FoamFile
{
    format      ascii;
    class       surfaceScalarField;
    location    "0.63";
    object      phi;
}
// * * * * * * * * * * * * * * * * * * * * * * * * * * * * * * * * * * * * * //

dimensions      [0 3 -1 0 0 0 0];

internalField   nonuniform List<scalar> 
2700
(
-6.029e-08
-1.03924e-07
1.64269e-07
-3.05165e-07
-1.15057e-07
3.59932e-07
-6.28285e-07
-1.15474e-07
4.38594e-07
-9.45597e-07
-1.36743e-07
4.54055e-07
-1.16964e-06
-1.88854e-07
4.12899e-07
-1.20302e-06
-2.66262e-07
2.99636e-07
-9.79395e-07
-3.41871e-07
1.18252e-07
-5.40533e-07
-3.66345e-07
-7.25171e-08
-1.04112e-07
-2.93184e-07
-1.43237e-07
-9.68689e-08
-7.24351e-09
-1.59684e-07
-2.25155e-07
2.80916e-07
-6.86072e-07
-2.97761e-07
7.09093e-07
-1.35063e-06
-3.18397e-07
8.67475e-07
-1.97328e-06
-3.59434e-07
8.45352e-07
-2.38451e-06
-4.42308e-07
6.64682e-07
-2.41027e-06
-5.55622e-07
3.15114e-07
-1.94126e-06
-6.53154e-07
-1.57724e-07
-1.07643e-06
-6.62079e-07
-5.69099e-07
-2.34922e-07
-5.25042e-07
-6.09647e-07
-2.12539e-07
-1.19253e-07
-2.35988e-07
-2.45057e-07
2.5589e-07
-9.51974e-07
-3.47774e-07
7.65999e-07
-1.83428e-06
-3.80092e-07
9.43999e-07
-2.63947e-06
-4.2244e-07
8.68201e-07
-3.14507e-06
-4.98855e-07
5.62142e-07
-3.13277e-06
-5.98909e-07
3.0988e-08
-2.47201e-06
-6.71743e-07
-6.42166e-07
-1.3197e-06
-6.61236e-07
-1.15316e-06
-2.51576e-07
-5.22917e-07
-1.07025e-06
-2.3018e-07
-2.33935e-07
-2.87091e-07
-1.55078e-07
1.97112e-07
-1.12698e-06
-2.2683e-07
7.18949e-07
-2.14858e-06
-2.50056e-07
8.9156e-07
-3.06534e-06
-2.75944e-07
7.7026e-07
-3.62014e-06
-3.19525e-07
3.75476e-07
-3.55703e-06
-3.73855e-07
-2.88167e-07
-2.75461e-06
-4.11186e-07
-1.06298e-06
-1.41347e-06
-3.98852e-07
-1.60352e-06
-2.2446e-07
-3.15345e-07
-1.39658e-06
-1.44427e-07
-3.10213e-07
-3.13185e-07
1.4522e-12
1.58106e-07
-1.21481e-06
1.2971e-12
6.74792e-07
-2.30489e-06
1.0318e-12
8.40024e-07
-3.27444e-06
8.21215e-13
6.93609e-07
-3.84799e-06
5.71853e-13
2.54017e-07
-3.75487e-06
4.37619e-13
-4.66969e-07
-2.87566e-06
3.5402e-13
-1.2904e-06
-1.44111e-06
2.897e-13
-1.83341e-06
-2.01074e-07
2.32321e-13
-1.55538e-06
2.23677e-13
-3.45501e-07
-3.13186e-07
1.55081e-07
1.58106e-07
-1.21481e-06
2.26833e-07
6.74792e-07
-2.30489e-06
2.50058e-07
8.40024e-07
-3.27444e-06
2.75945e-07
6.93609e-07
-3.84799e-06
3.19526e-07
2.54017e-07
-3.75487e-06
3.73856e-07
-4.66969e-07
-2.87566e-06
4.11187e-07
-1.2904e-06
-1.44111e-06
3.98853e-07
-1.83341e-06
-2.01074e-07
3.15346e-07
-1.55538e-06
1.44427e-07
-3.45501e-07
-2.87091e-07
2.45062e-07
1.97111e-07
-1.12698e-06
3.47778e-07
7.18949e-07
-2.14858e-06
3.80095e-07
8.9156e-07
-3.06534e-06
4.22441e-07
7.7026e-07
-3.62014e-06
4.98856e-07
3.75476e-07
-3.55703e-06
5.98909e-07
-2.88167e-07
-2.75461e-06
6.71744e-07
-1.06298e-06
-1.41347e-06
6.61236e-07
-1.60352e-06
-2.2446e-07
5.22917e-07
-1.39658e-06
2.3018e-07
-3.10213e-07
-2.3599e-07
2.25162e-07
2.55889e-07
-9.51975e-07
2.97766e-07
7.65998e-07
-1.83428e-06
3.18399e-07
9.43999e-07
-2.63947e-06
3.59436e-07
8.682e-07
-3.14507e-06
4.42309e-07
5.62142e-07
-3.13277e-06
5.55623e-07
3.09879e-08
-2.47201e-06
6.53154e-07
-6.42166e-07
-1.3197e-06
6.6208e-07
-1.15316e-06
-2.51576e-07
5.25043e-07
-1.07025e-06
2.12539e-07
-2.33935e-07
-1.59689e-07
1.03941e-07
2.8091e-07
-6.86077e-07
1.15063e-07
7.09091e-07
-1.35063e-06
1.15476e-07
8.67474e-07
-1.97329e-06
1.36744e-07
8.45351e-07
-2.38451e-06
1.88855e-07
6.64681e-07
-2.41027e-06
2.66263e-07
3.15114e-07
-1.94126e-06
3.41872e-07
-1.57724e-07
-1.07643e-06
3.66345e-07
-5.69099e-07
-2.34922e-07
2.93184e-07
-6.09647e-07
9.68689e-08
-1.19253e-07
-6.03098e-08
1.64251e-07
-3.05173e-07
3.59927e-07
-6.28289e-07
4.38592e-07
-9.45599e-07
4.54054e-07
-1.16964e-06
4.12898e-07
-1.20302e-06
2.99636e-07
-9.79396e-07
1.18251e-07
-5.40533e-07
-7.25171e-08
-1.04112e-07
-1.43237e-07
-7.24365e-09
-2.19791e-07
-2.72588e-07
6.56649e-07
-7.20676e-07
-3.61917e-07
1.22273e-06
-1.32243e-06
-3.77475e-07
1.41783e-06
-1.89422e-06
-3.87543e-07
1.41339e-06
-2.29319e-06
-4.20074e-07
1.23194e-06
-2.36029e-06
-4.76713e-07
8.43446e-07
-1.98042e-06
-5.30656e-07
2.69033e-07
-1.19328e-06
-5.23818e-07
-3.35836e-07
-3.31403e-07
-3.89153e-07
-6.15961e-07
-8.37172e-08
-2.54929e-07
-5.96825e-07
-4.95181e-07
1.10033e-06
-1.80629e-06
-7.16748e-07
2.27339e-06
-3.19288e-06
-7.62634e-07
2.63922e-06
-4.4318e-06
-7.82141e-07
2.47887e-06
-5.21556e-06
-8.30955e-07
1.85932e-06
-5.24967e-06
-9.08238e-07
7.80754e-07
-4.35031e-06
-9.7353e-07
-6.14215e-07
-2.64588e-06
-9.32829e-07
-1.86451e-06
-8.18086e-07
-7.04706e-07
-2.12189e-06
-2.29869e-07
-7.91187e-07
-8.8074e-07
-5.0209e-07
1.14354e-06
-2.59782e-06
-7.6e-07
2.52633e-06
-4.5093e-06
-8.17294e-07
2.91015e-06
-6.15066e-06
-8.36415e-07
2.56383e-06
-7.1105e-06
-8.77414e-07
1.56845e-06
-7.04647e-06
-9.40475e-07
-8.08103e-10
-5.73716e-06
-9.73947e-07
-1.95105e-06
-3.42458e-06
-9.14671e-07
-3.48391e-06
-1.03179e-06
-6.98722e-07
-3.46902e-06
-2.68489e-07
-1.22711e-06
-1.06579e-06
-3.07899e-07
1.06871e-06
-3.11603e-06
-4.76249e-07
2.48544e-06
-5.35818e-06
-5.14628e-07
2.83105e-06
-7.23162e-06
-5.25327e-07
2.33261e-06
-8.26681e-06
-5.45823e-07
1.07908e-06
-8.08373e-06
-5.76099e-07
-8.35626e-07
-6.48621e-06
-5.85863e-07
-3.04859e-06
-3.79467e-06
-5.44068e-07
-4.66566e-06
-1.09627e-06
-4.18813e-07
-4.37489e-06
-1.73346e-07
-1.50163e-06
-1.15663e-06
1.31136e-12
1.00683e-06
-3.37192e-06
1.10457e-12
2.41384e-06
-5.7739e-06
8.17537e-13
2.72738e-06
-7.75209e-06
6.42835e-13
2.14647e-06
-8.81054e-06
4.81915e-13
7.66642e-07
-8.55355e-06
4.00536e-13
-1.30006e-06
-6.80693e-06
3.4113e-13
-3.62288e-06
-3.93577e-06
2.95201e-13
-5.24864e-06
-1.10732e-06
2.29219e-13
-4.80264e-06
2.0625e-13
-1.62617e-06
-1.15663e-06
3.07901e-07
1.00683e-06
-3.37192e-06
4.76251e-07
2.41384e-06
-5.7739e-06
5.14629e-07
2.72738e-06
-7.75209e-06
5.25328e-07
2.14647e-06
-8.81054e-06
5.45824e-07
7.66642e-07
-8.55355e-06
5.76099e-07
-1.30006e-06
-6.80693e-06
5.85864e-07
-3.62288e-06
-3.93577e-06
5.44069e-07
-5.24864e-06
-1.10732e-06
4.18814e-07
-4.80264e-06
1.73347e-07
-1.62617e-06
-1.06579e-06
5.02093e-07
1.06871e-06
-3.11603e-06
7.60002e-07
2.48544e-06
-5.35818e-06
8.17295e-07
2.83105e-06
-7.23162e-06
8.36416e-07
2.33261e-06
-8.26681e-06
8.77415e-07
1.07908e-06
-8.08373e-06
9.40475e-07
-8.35626e-07
-6.48621e-06
9.73948e-07
-3.04859e-06
-3.79467e-06
9.14671e-07
-4.66566e-06
-1.09627e-06
6.98722e-07
-4.37489e-06
2.68489e-07
-1.50163e-06
-8.8074e-07
4.95186e-07
1.14354e-06
-2.59782e-06
7.16751e-07
2.52633e-06
-4.5093e-06
7.62636e-07
2.91014e-06
-6.15066e-06
7.82143e-07
2.56383e-06
-7.1105e-06
8.30956e-07
1.56845e-06
-7.04647e-06
9.08239e-07
-8.08224e-10
-5.73716e-06
9.7353e-07
-1.95105e-06
-3.42458e-06
9.3283e-07
-3.48391e-06
-1.03179e-06
7.04706e-07
-3.46902e-06
2.29869e-07
-1.22711e-06
-5.96827e-07
2.72594e-07
1.10033e-06
-1.8063e-06
3.6192e-07
2.27339e-06
-3.19288e-06
3.77477e-07
2.63921e-06
-4.4318e-06
3.87544e-07
2.47887e-06
-5.21556e-06
4.20074e-07
1.85932e-06
-5.24967e-06
4.76714e-07
7.80754e-07
-4.35031e-06
5.30656e-07
-6.14215e-07
-2.64588e-06
5.23818e-07
-1.86451e-06
-8.18086e-07
3.89154e-07
-2.12189e-06
8.37172e-08
-7.91187e-07
-2.19797e-07
6.56641e-07
-7.2068e-07
1.22273e-06
-1.32244e-06
1.41782e-06
-1.89422e-06
1.41339e-06
-2.2932e-06
1.23194e-06
-2.36029e-06
8.43446e-07
-1.98042e-06
2.69032e-07
-1.19328e-06
-3.35836e-07
-3.31403e-07
-6.15961e-07
-2.54929e-07
-3.3253e-07
-4.17587e-07
1.40677e-06
-1.00427e-06
-5.58486e-07
2.45296e-06
-1.78589e-06
-5.62782e-07
2.76223e-06
-2.54485e-06
-5.26577e-07
2.69892e-06
-3.13004e-06
-4.996e-07
2.31674e-06
-3.34022e-06
-5.03699e-07
1.55733e-06
-2.97391e-06
-5.26942e-07
4.29662e-07
-1.96883e-06
-5.21944e-07
-8.1897e-07
-6.70193e-07
-3.92685e-07
-1.52191e-06
-3.98765e-08
-8.85245e-07
-9.48774e-07
-7.22571e-07
2.35409e-06
-2.67598e-06
-1.03956e-06
4.48167e-06
-4.58425e-06
-1.05509e-06
5.0398e-06
-6.29227e-06
-9.77613e-07
4.63792e-06
-7.44995e-06
-9.03251e-07
3.42065e-06
-7.68435e-06
-8.67218e-07
1.37867e-06
-6.67356e-06
-8.53501e-07
-1.29844e-06
-4.39299e-06
-8.09685e-07
-3.85735e-06
-1.57684e-06
-6.23476e-07
-4.70724e-06
-1.5485e-07
-2.25305e-06
-1.42784e-06
-7.11333e-07
2.56014e-06
-3.9399e-06
-1.06315e-06
5.06198e-06
-6.61903e-06
-1.08236e-06
5.61655e-06
-8.89277e-06
-9.92873e-07
4.85283e-06
-1.02928e-05
-8.94839e-07
2.96004e-06
-1.03828e-05
-8.21024e-07
4.30431e-08
-8.83733e-06
-7.6696e-07
-3.58308e-06
-5.71443e-06
-7.06546e-07
-6.70994e-06
-2.01562e-06
-5.58464e-07
-7.23284e-06
-1.90309e-07
-3.20727e-06
-1.74419e-06
-4.28807e-07
2.53037e-06
-4.77192e-06
-6.53014e-07
5.10303e-06
-7.92784e-06
-6.6513e-07
5.56974e-06
-1.0507e-05
-6.05157e-07
4.52404e-06
-1.19779e-05
-5.35225e-07
2.19035e-06
-1.18957e-05
-4.75263e-07
-1.26356e-06
-9.97134e-06
-4.28062e-07
-5.31184e-06
-6.34736e-06
-3.87906e-07
-8.60828e-06
-2.18755e-06
-3.13603e-07
-8.77956e-06
-1.23453e-07
-3.75603e-06
-1.89944e-06
1.08568e-12
2.47746e-06
-5.18041e-06
8.31682e-13
5.0418e-06
-8.56128e-06
5.92058e-13
5.44311e-06
-1.12691e-05
4.84552e-13
4.24915e-06
-1.2746e-05
3.89598e-13
1.70825e-06
-1.2555e-05
3.43822e-13
-1.96623e-06
-1.04397e-05
3.12349e-13
-6.16633e-06
-6.59006e-06
2.82748e-13
-9.48614e-06
-2.24156e-06
2.45294e-13
-9.46474e-06
2.26363e-13
-3.99118e-06
-1.89944e-06
4.2881e-07
2.47746e-06
-5.18041e-06
6.53016e-07
5.0418e-06
-8.56128e-06
6.65131e-07
5.44311e-06
-1.12691e-05
6.05157e-07
4.24915e-06
-1.2746e-05
5.35226e-07
1.70825e-06
-1.2555e-05
4.75264e-07
-1.96623e-06
-1.04397e-05
4.28063e-07
-6.16633e-06
-6.59006e-06
3.87906e-07
-9.48614e-06
-2.24156e-06
3.13603e-07
-9.46474e-06
1.23454e-07
-3.99118e-06
-1.74419e-06
7.11336e-07
2.53037e-06
-4.77192e-06
1.06315e-06
5.10303e-06
-7.92784e-06
1.08236e-06
5.56974e-06
-1.0507e-05
9.92874e-07
4.52404e-06
-1.19779e-05
8.9484e-07
2.19035e-06
-1.18957e-05
8.21024e-07
-1.26356e-06
-9.97134e-06
7.66961e-07
-5.31184e-06
-6.34736e-06
7.06546e-07
-8.60828e-06
-2.18755e-06
5.58464e-07
-8.77956e-06
1.90309e-07
-3.75603e-06
-1.42784e-06
7.22573e-07
2.56014e-06
-3.9399e-06
1.03956e-06
5.06198e-06
-6.61903e-06
1.05509e-06
5.61655e-06
-8.89277e-06
9.77614e-07
4.85283e-06
-1.02928e-05
9.03252e-07
2.96004e-06
-1.03828e-05
8.67219e-07
4.3043e-08
-8.83733e-06
8.53501e-07
-3.58308e-06
-5.71443e-06
8.09685e-07
-6.70994e-06
-2.01562e-06
6.23476e-07
-7.23284e-06
1.5485e-07
-3.20727e-06
-9.48775e-07
4.1759e-07
2.35409e-06
-2.67598e-06
5.58487e-07
4.48167e-06
-4.58425e-06
5.62783e-07
5.0398e-06
-6.29227e-06
5.26577e-07
4.63792e-06
-7.44995e-06
4.99601e-07
3.42065e-06
-7.68435e-06
5.03699e-07
1.37867e-06
-6.67356e-06
5.26942e-07
-1.29844e-06
-4.39299e-06
5.21944e-07
-3.85735e-06
-1.57684e-06
3.92685e-07
-4.70724e-06
3.98766e-08
-2.25305e-06
-3.32532e-07
1.40676e-06
-1.00427e-06
2.45296e-06
-1.7859e-06
2.76223e-06
-2.54485e-06
2.69892e-06
-3.13004e-06
2.31674e-06
-3.34022e-06
1.55733e-06
-2.97391e-06
4.29662e-07
-1.96883e-06
-8.1897e-07
-6.70193e-07
-1.52191e-06
-8.85245e-07
-4.17153e-07
-5.4646e-07
2.37038e-06
-1.20538e-06
-7.11252e-07
3.95243e-06
-2.1146e-06
-6.65307e-07
4.33676e-06
-3.05168e-06
-5.32259e-07
4.16826e-06
-3.8967e-06
-3.90592e-07
3.55234e-06
-4.41608e-06
-2.95697e-07
2.37241e-06
-4.27104e-06
-2.73806e-07
5.58422e-07
-3.1652e-06
-3.19677e-07
-1.60513e-06
-1.30368e-06
-3.00391e-07
-3.08304e-06
-7.88995e-10
-2.18814e-06
-1.22841e-06
-9.22155e-07
3.95819e-06
-3.35032e-06
-1.28154e-06
7.17387e-06
-5.65995e-06
-1.19082e-06
7.87494e-06
-7.79767e-06
-9.13464e-07
7.15686e-06
-9.44236e-06
-5.98452e-07
5.2732e-06
-1.0166e-05
-3.49535e-07
2.15615e-06
-9.42779e-06
-2.30625e-07
-2.07984e-06
-6.81576e-06
-2.72316e-07
-6.51675e-06
-2.83156e-06
-3.1559e-07
-8.67624e-06
-5.21255e-08
-5.03328e-06
-1.86752e-06
-8.91318e-07
4.39682e-06
-4.99694e-06
-1.28012e-06
8.18997e-06
-8.26248e-06
-1.18002e-06
8.87129e-06
-1.10799e-05
-8.71067e-07
7.6279e-06
-1.30161e-05
-5.09167e-07
4.80686e-06
-1.35834e-05
-2.00191e-07
4.61083e-07
-1.22666e-05
-4.02939e-08
-5.09031e-06
-8.68729e-06
-7.67228e-08
-1.04848e-05
-3.55537e-06
-1.81595e-07
-1.24988e-05
-6.97259e-08
-6.74504e-06
-2.28916e-06
-5.30915e-07
4.45912e-06
-6.07279e-06
-7.74598e-07
8.38115e-06
-9.90738e-06
-7.09069e-07
8.93337e-06
-1.30517e-05
-5.08677e-07
7.306e-06
-1.5022e-05
-2.71407e-07
3.92283e-06
-1.53705e-05
-6.51795e-08
-1.05005e-06
-1.36338e-05
4.2346e-08
-7.13113e-06
-9.52313e-06
1.70575e-08
-1.28128e-05
-3.84731e-06
-6.79565e-08
-1.4569e-05
-4.40845e-08
-7.62898e-06
-2.49425e-06
8.54086e-13
4.4408e-06
-6.59349e-06
6.17563e-13
8.36644e-06
-1.06855e-05
4.41095e-13
8.82609e-06
-1.39501e-05
3.69876e-13
7.00507e-06
-1.58902e-05
3.26741e-13
3.37691e-06
-1.6095e-05
3.04275e-13
-1.82663e-06
-1.41558e-05
2.93302e-13
-8.06318e-06
-9.82688e-06
2.63288e-13
-1.3798e-05
-3.94724e-06
2.3554e-13
-1.54123e-05
2.21292e-13
-7.9825e-06
-2.49425e-06
5.30917e-07
4.4408e-06
-6.59349e-06
7.74599e-07
8.36644e-06
-1.06855e-05
7.09069e-07
8.82609e-06
-1.39501e-05
5.08678e-07
7.00507e-06
-1.58902e-05
2.71408e-07
3.37691e-06
-1.6095e-05
6.518e-08
-1.82663e-06
-1.41558e-05
-4.23455e-08
-8.06318e-06
-9.82688e-06
-1.70571e-08
-1.3798e-05
-3.94724e-06
6.7957e-08
-1.54123e-05
4.40849e-08
-7.9825e-06
-2.28916e-06
8.91319e-07
4.45912e-06
-6.07279e-06
1.28012e-06
8.38115e-06
-9.90738e-06
1.18002e-06
8.93337e-06
-1.30517e-05
8.71068e-07
7.306e-06
-1.5022e-05
5.09168e-07
3.92283e-06
-1.53705e-05
2.00191e-07
-1.05005e-06
-1.36338e-05
4.02943e-08
-7.13113e-06
-9.52313e-06
7.67232e-08
-1.28128e-05
-3.84731e-06
1.81595e-07
-1.4569e-05
6.97263e-08
-7.62898e-06
-1.86752e-06
9.22156e-07
4.39682e-06
-4.99694e-06
1.28155e-06
8.18997e-06
-8.26248e-06
1.19082e-06
8.87129e-06
-1.10799e-05
9.13465e-07
7.6279e-06
-1.30161e-05
5.98452e-07
4.80686e-06
-1.35834e-05
3.49536e-07
4.61083e-07
-1.22666e-05
2.30626e-07
-5.09031e-06
-8.68729e-06
2.72316e-07
-1.04848e-05
-3.55537e-06
3.1559e-07
-1.24988e-05
5.21257e-08
-6.74504e-06
-1.22841e-06
5.46461e-07
3.95819e-06
-3.35032e-06
7.11253e-07
7.17387e-06
-5.65995e-06
6.65307e-07
7.87494e-06
-7.79767e-06
5.32259e-07
7.15686e-06
-9.44236e-06
3.90592e-07
5.2732e-06
-1.0166e-05
2.95697e-07
2.15615e-06
-9.42779e-06
2.73806e-07
-2.07984e-06
-6.81576e-06
3.19677e-07
-6.51675e-06
-2.83156e-06
3.00391e-07
-8.67624e-06
7.89133e-10
-5.03328e-06
-4.17154e-07
2.37038e-06
-1.20538e-06
3.95243e-06
-2.1146e-06
4.33676e-06
-3.05169e-06
4.16826e-06
-3.8967e-06
3.55234e-06
-4.41608e-06
2.37241e-06
-4.27104e-06
5.58422e-07
-3.1652e-06
-1.60513e-06
-1.30368e-06
-3.08304e-06
-2.18814e-06
-5.11692e-07
-6.48842e-07
3.53091e-06
-1.36068e-06
-8.03066e-07
5.60449e-06
-2.31755e-06
-6.54727e-07
5.94835e-06
-3.38672e-06
-3.54831e-07
5.59226e-06
-4.54249e-06
8.34837e-10
4.70729e-06
-5.5532e-06
2.75566e-07
3.10755e-06
-5.91632e-06
3.81356e-07
5.40187e-07
-4.95093e-06
2.35112e-07
-2.80563e-06
-2.45378e-06
-1.07162e-09
-5.57912e-06
8.38583e-09
-4.6503e-06
-1.47221e-06
-1.07245e-06
5.85401e-06
-3.84204e-06
-1.41237e-06
1.0153e-05
-6.36943e-06
-1.12331e-06
1.08709e-05
-8.81671e-06
-5.20569e-07
9.76988e-06
-1.09783e-05
1.75974e-07
7.25967e-06
-1.24435e-05
7.54665e-07
3.14227e-06
-1.24344e-05
1.00446e-06
-2.71213e-06
-9.96677e-06
7.62111e-07
-9.51132e-06
-4.83762e-06
2.35524e-07
-1.4042e-05
1.03314e-08
-9.87284e-06
-2.21201e-06
-1.02008e-06
6.55646e-06
-5.72369e-06
-1.38344e-06
1.16727e-05
-9.29662e-06
-1.07379e-06
1.23947e-05
-1.24465e-05
-4.26325e-07
1.06836e-05
-1.48752e-05
3.17154e-07
7.09439e-06
-1.61453e-05
9.29108e-07
1.55667e-06
-1.55541e-05
1.18321e-06
-5.86023e-06
-1.21566e-05
9.20396e-07
-1.40406e-05
-5.82704e-06
3.50482e-07
-1.89433e-05
1.69558e-08
-1.25787e-05
-2.68956e-06
-6.01026e-07
6.72964e-06
-6.92197e-06
-8.26008e-07
1.20561e-05
-1.10788e-05
-6.29201e-07
1.26456e-05
-1.45028e-05
-2.19999e-07
1.05237e-05
-1.68763e-05
2.46407e-07
6.36704e-06
-1.78298e-05
6.25069e-07
2.07575e-07
-1.68222e-05
7.664e-07
-7.72201e-06
-1.2988e-05
5.91132e-07
-1.63177e-05
-6.19725e-06
2.35556e-07
-2.12448e-05
1.40976e-08
-1.38234e-05
-2.91673e-06
6.71524e-13
6.7565e-06
-7.48646e-06
4.48045e-13
1.21102e-05
-1.18904e-05
2.98326e-13
1.26008e-05
-1.53865e-05
2.39466e-13
1.02813e-05
-1.76647e-05
2.37794e-13
5.90151e-06
-1.84302e-05
2.54559e-13
-4.36058e-07
-1.72344e-05
2.67898e-13
-8.49264e-06
-1.32558e-05
2.42703e-13
-1.71854e-05
-6.32524e-06
2.31614e-13
-2.21073e-05
1.9861e-13
-1.42937e-05
-2.91673e-06
6.01028e-07
6.7565e-06
-7.48646e-06
8.26009e-07
1.21102e-05
-1.18904e-05
6.29202e-07
1.26008e-05
-1.53865e-05
2.2e-07
1.02813e-05
-1.76647e-05
-2.46407e-07
5.90151e-06
-1.84302e-05
-6.25068e-07
-4.36058e-07
-1.72344e-05
-7.664e-07
-8.49264e-06
-1.32558e-05
-5.91131e-07
-1.71854e-05
-6.32524e-06
-2.35556e-07
-2.21073e-05
-1.40973e-08
-1.42937e-05
-2.68956e-06
1.02008e-06
6.72964e-06
-6.92197e-06
1.38344e-06
1.20561e-05
-1.10788e-05
1.07379e-06
1.26456e-05
-1.45028e-05
4.26325e-07
1.05237e-05
-1.68763e-05
-3.17154e-07
6.36704e-06
-1.78298e-05
-9.29107e-07
2.07575e-07
-1.68222e-05
-1.18321e-06
-7.72201e-06
-1.2988e-05
-9.20395e-07
-1.63177e-05
-6.19725e-06
-3.50482e-07
-2.12448e-05
-1.69555e-08
-1.38234e-05
-2.21201e-06
1.07245e-06
6.55646e-06
-5.72369e-06
1.41237e-06
1.16727e-05
-9.29662e-06
1.12331e-06
1.23947e-05
-1.24465e-05
5.2057e-07
1.06836e-05
-1.48752e-05
-1.75974e-07
7.09439e-06
-1.61453e-05
-7.54665e-07
1.55667e-06
-1.55541e-05
-1.00446e-06
-5.86023e-06
-1.21566e-05
-7.62111e-07
-1.40406e-05
-5.82704e-06
-2.35524e-07
-1.89433e-05
-1.03312e-08
-1.25787e-05
-1.47221e-06
6.48842e-07
5.85401e-06
-3.84204e-06
8.03066e-07
1.0153e-05
-6.36943e-06
6.54727e-07
1.08709e-05
-8.81671e-06
3.54832e-07
9.76988e-06
-1.09783e-05
-8.34494e-10
7.25967e-06
-1.24435e-05
-2.75566e-07
3.14227e-06
-1.24344e-05
-3.81355e-07
-2.71213e-06
-9.96677e-06
-2.35112e-07
-9.51132e-06
-4.83762e-06
1.07171e-09
-1.4042e-05
-8.38568e-09
-9.87284e-06
-5.11692e-07
3.53091e-06
-1.36068e-06
5.60449e-06
-2.31755e-06
5.94835e-06
-3.38672e-06
5.59226e-06
-4.54249e-06
4.70729e-06
-5.5532e-06
3.10755e-06
-5.91632e-06
5.40187e-07
-4.95093e-06
-2.80563e-06
-2.45378e-06
-5.57912e-06
-4.65031e-06
-7.05252e-07
-7.2665e-07
4.96282e-06
-1.53477e-06
-8.26958e-07
7.26096e-06
-2.37236e-06
-5.16726e-07
7.30267e-06
-3.41917e-06
3.34281e-08
6.60565e-06
-4.80859e-06
6.71552e-07
5.42515e-06
-6.41336e-06
1.24072e-06
3.47161e-06
-7.6069e-06
1.50934e-06
2.24379e-07
-7.22989e-06
1.21838e-06
-4.40102e-06
-4.27949e-06
4.90773e-07
-9.0203e-06
-6.42771e-08
-8.86552e-06
-1.76317e-06
-1.17001e-06
8.06054e-06
-4.16398e-06
-1.42612e-06
1.3153e-05
-6.54271e-06
-8.53126e-07
1.3586e-05
-8.91502e-06
1.77836e-07
1.19978e-05
-1.13237e-05
1.35993e-06
8.97997e-06
-1.34896e-05
2.35925e-06
4.18966e-06
-1.45621e-05
2.76882e-06
-2.89915e-06
-1.29924e-05
2.22398e-06
-1.20866e-05
-7.41171e-06
9.46601e-07
-2.00785e-05
-5.87037e-08
-1.72901e-05
-2.51352e-06
-1.09201e-06
8.99197e-06
-6.0583e-06
-1.3723e-06
1.51637e-05
-9.42374e-06
-7.83603e-07
1.56906e-05
-1.23701e-05
2.73719e-07
1.3534e-05
-1.48569e-05
1.45499e-06
9.48609e-06
-1.66497e-05
2.39815e-06
3.31066e-06
-1.70855e-05
2.69777e-06
-5.35347e-06
-1.47791e-05
2.08791e-06
-1.62109e-05
-8.35437e-06
8.69328e-07
-2.52907e-05
-2.95683e-08
-2.09622e-05
-2.97463e-06
-6.35478e-07
9.24774e-06
-7.2079e-06
-8.09075e-07
1.57262e-05
-1.10744e-05
-4.45294e-07
1.61737e-05
-1.4156e-05
2.03719e-07
1.36753e-05
-1.64142e-05
9.1261e-07
9.16768e-06
-1.77626e-05
1.44935e-06
2.50471e-06
-1.77716e-05
1.58279e-06
-6.59803e-06
-1.5221e-05
1.18549e-06
-1.79659e-05
-8.64789e-06
4.79823e-07
-2.74284e-05
-8.63274e-09
-2.24922e-05
-3.18549e-06
5.05484e-13
9.3065e-06
-7.72678e-06
3.32181e-13
1.58424e-05
-1.17842e-05
2.00898e-13
1.62129e-05
-1.48563e-05
1.74422e-13
1.35571e-05
-1.69362e-05
2.21714e-13
8.89397e-06
-1.804e-05
2.51186e-13
2.11715e-06
-1.78909e-05
2.5154e-13
-7.05895e-06
-1.53163e-05
2.3255e-13
-1.85746e-05
-8.75481e-06
2.14061e-13
-2.8189e-05
1.69077e-13
-2.30571e-05
-3.18549e-06
6.35479e-07
9.3065e-06
-7.72678e-06
8.09075e-07
1.58424e-05
-1.17842e-05
4.45294e-07
1.62129e-05
-1.48563e-05
-2.03718e-07
1.35571e-05
-1.69362e-05
-9.12609e-07
8.89397e-06
-1.804e-05
-1.44935e-06
2.11715e-06
-1.78909e-05
-1.58279e-06
-7.05895e-06
-1.53163e-05
-1.18549e-06
-1.85746e-05
-8.75481e-06
-4.79823e-07
-2.8189e-05
8.63308e-09
-2.30571e-05
-2.97463e-06
1.09201e-06
9.24774e-06
-7.2079e-06
1.3723e-06
1.57262e-05
-1.10744e-05
7.83603e-07
1.61737e-05
-1.4156e-05
-2.73718e-07
1.36753e-05
-1.64142e-05
-1.45499e-06
9.16768e-06
-1.77626e-05
-2.39815e-06
2.50471e-06
-1.77716e-05
-2.69777e-06
-6.59803e-06
-1.5221e-05
-2.08791e-06
-1.79659e-05
-8.64789e-06
-8.69327e-07
-2.74284e-05
2.95686e-08
-2.24922e-05
-2.51352e-06
1.17001e-06
8.99197e-06
-6.0583e-06
1.42612e-06
1.51637e-05
-9.42374e-06
8.53126e-07
1.56906e-05
-1.23701e-05
-1.77836e-07
1.3534e-05
-1.48569e-05
-1.35993e-06
9.48609e-06
-1.66497e-05
-2.35925e-06
3.31066e-06
-1.70855e-05
-2.76882e-06
-5.35347e-06
-1.47791e-05
-2.22398e-06
-1.62109e-05
-8.35437e-06
-9.46601e-07
-2.52907e-05
5.87038e-08
-2.09622e-05
-1.76317e-06
7.2665e-07
8.06054e-06
-4.16398e-06
8.26959e-07
1.3153e-05
-6.54271e-06
5.16726e-07
1.3586e-05
-8.91502e-06
-3.34281e-08
1.19978e-05
-1.13237e-05
-6.71552e-07
8.97997e-06
-1.34896e-05
-1.24071e-06
4.18966e-06
-1.45621e-05
-1.50934e-06
-2.89915e-06
-1.29924e-05
-1.21838e-06
-1.20866e-05
-7.41171e-06
-4.90773e-07
-2.00785e-05
6.42772e-08
-1.72901e-05
-7.05252e-07
4.96281e-06
-1.53477e-06
7.26096e-06
-2.37236e-06
7.30267e-06
-3.41917e-06
6.60565e-06
-4.80859e-06
5.42515e-06
-6.41337e-06
3.47161e-06
-7.6069e-06
2.24379e-07
-7.22989e-06
-4.40102e-06
-4.27949e-06
-9.0203e-06
-8.86552e-06
-1.2389e-06
-8.30071e-07
7.03179e-06
-1.86178e-06
-8.42068e-07
8.7259e-06
-2.22301e-06
-3.26834e-07
7.99074e-06
-2.85589e-06
5.07791e-07
6.73074e-06
-4.14936e-06
1.48603e-06
5.2326e-06
-6.18333e-06
2.42333e-06
3.08226e-06
-8.41868e-06
2.96572e-06
-5.05993e-07
-9.22223e-06
2.58453e-06
-6.18199e-06
-6.50144e-06
1.2043e-06
-1.29454e-05
-2.91558e-07
-1.50754e-05
-2.4004e-06
-1.26747e-06
1.08983e-05
-4.43576e-06
-1.40887e-06
1.57551e-05
-5.96171e-06
-5.23995e-07
1.53091e-05
-7.42842e-06
9.25798e-07
1.30465e-05
-9.24734e-06
2.56747e-06
9.71745e-06
-1.14761e-05
3.98523e-06
4.85648e-06
-1.35245e-05
4.59994e-06
-2.48494e-06
-1.36583e-05
3.75928e-06
-1.31276e-05
-9.28606e-06
1.58212e-06
-2.48285e-05
-4.13283e-07
-2.64545e-05
-3.04529e-06
-1.14543e-06
1.19152e-05
-6.07943e-06
-1.32207e-06
1.8111e-05
-8.36037e-06
-4.58348e-07
1.79059e-05
-1.00862e-05
9.49762e-07
1.52359e-05
-1.16002e-05
2.48307e-06
1.10845e-05
-1.30788e-05
3.69035e-06
5.0842e-06
-1.42703e-05
4.04132e-06
-3.60344e-06
-1.38938e-05
3.09326e-06
-1.59213e-05
-9.47279e-06
1.16895e-06
-2.92986e-05
-3.34953e-07
-3.05133e-05
-3.40662e-06
-6.54032e-07
1.2163e-05
-6.99813e-06
-7.67227e-07
1.87628e-05
-9.61739e-06
-2.49773e-07
1.85844e-05
-1.12957e-05
5.87815e-07
1.57156e-05
-1.23917e-05
1.47211e-06
1.12747e-05
-1.32692e-05
2.12204e-06
4.95048e-06
-1.39916e-05
2.24068e-06
-4.07498e-06
-1.35672e-05
1.63627e-06
-1.69333e-05
-9.43445e-06
5.73687e-07
-3.09659e-05
-1.70461e-07
-3.20911e-05
-3.56119e-06
3.38628e-13
1.22137e-05
-7.3856e-06
2.08502e-13
1.88996e-05
-1.01125e-05
9.76869e-14
1.869e-05
-1.17016e-05
1.05774e-13
1.5734e-05
-1.25516e-05
1.58139e-13
1.12161e-05
-1.31552e-05
1.90523e-13
4.84286e-06
-1.37398e-05
2.05804e-13
-4.23371e-06
-1.34024e-05
1.94768e-13
-1.72757e-05
-9.44878e-06
1.80054e-13
-3.1569e-05
1.43525e-13
-3.26763e-05
-3.56119e-06
6.54032e-07
1.22137e-05
-7.3856e-06
7.67227e-07
1.88996e-05
-1.01125e-05
2.49774e-07
1.869e-05
-1.17016e-05
-5.87815e-07
1.5734e-05
-1.25516e-05
-1.47211e-06
1.12161e-05
-1.31552e-05
-2.12204e-06
4.84286e-06
-1.37398e-05
-2.24068e-06
-4.23371e-06
-1.34024e-05
-1.63627e-06
-1.72757e-05
-9.44878e-06
-5.73687e-07
-3.1569e-05
1.70461e-07
-3.26763e-05
-3.40662e-06
1.14544e-06
1.2163e-05
-6.99813e-06
1.32207e-06
1.87628e-05
-9.61739e-06
4.58348e-07
1.85844e-05
-1.12957e-05
-9.49762e-07
1.57156e-05
-1.23917e-05
-2.48307e-06
1.12747e-05
-1.32692e-05
-3.69034e-06
4.95048e-06
-1.39916e-05
-4.04132e-06
-4.07498e-06
-1.35672e-05
-3.09326e-06
-1.69333e-05
-9.43445e-06
-1.16895e-06
-3.09659e-05
3.34953e-07
-3.20911e-05
-3.04529e-06
1.26747e-06
1.19152e-05
-6.07943e-06
1.40887e-06
1.8111e-05
-8.36037e-06
5.23995e-07
1.79059e-05
-1.00862e-05
-9.25798e-07
1.52359e-05
-1.16002e-05
-2.56746e-06
1.10845e-05
-1.30788e-05
-3.98523e-06
5.0842e-06
-1.42703e-05
-4.59994e-06
-3.60344e-06
-1.38938e-05
-3.75928e-06
-1.59213e-05
-9.47279e-06
-1.58212e-06
-2.92986e-05
4.13284e-07
-3.05133e-05
-2.4004e-06
8.30071e-07
1.08983e-05
-4.43576e-06
8.42068e-07
1.57551e-05
-5.96171e-06
3.26834e-07
1.53091e-05
-7.42842e-06
-5.07791e-07
1.30465e-05
-9.24734e-06
-1.48603e-06
9.71745e-06
-1.14761e-05
-2.42333e-06
4.85648e-06
-1.35245e-05
-2.96572e-06
-2.48494e-06
-1.36583e-05
-2.58453e-06
-1.31276e-05
-9.28606e-06
-1.2043e-06
-2.48285e-05
2.91558e-07
-2.64545e-05
-1.23891e-06
7.03179e-06
-1.86178e-06
8.7259e-06
-2.22301e-06
7.99074e-06
-2.85589e-06
6.73074e-06
-4.14936e-06
5.2326e-06
-6.18333e-06
3.08226e-06
-8.41868e-06
-5.05993e-07
-9.22223e-06
-6.18199e-06
-6.50144e-06
-1.29454e-05
-1.50754e-05
-2.48358e-06
-1.08709e-06
1.06025e-05
-2.25921e-06
-1.07843e-06
9.57995e-06
-1.32045e-06
-3.97491e-07
7.44947e-06
-7.63782e-07
6.61458e-07
5.51261e-06
-1.24055e-06
1.89248e-06
3.81688e-06
-3.08734e-06
3.13265e-06
1.7964e-06
-6.14825e-06
4.02575e-06
-1.47083e-06
-8.67932e-06
3.69074e-06
-7.34167e-06
-7.6682e-06
1.63441e-06
-1.55909e-05
-1.00388e-06
-2.17397e-05
-4.04765e-06
-1.53027e-06
1.53892e-05
-4.73297e-06
-1.66233e-06
1.70244e-05
-3.95295e-06
-6.0783e-07
1.47395e-05
-2.99154e-06
1.03842e-06
1.17081e-05
-2.71494e-06
2.8978e-06
8.43553e-06
-3.61942e-06
4.57563e-06
4.31797e-06
-5.76878e-06
5.5009e-06
-1.81073e-06
-8.06977e-06
4.61881e-06
-1.17547e-05
-7.45138e-06
1.647e-06
-2.54595e-05
-1.36548e-06
-3.35442e-05
-4.66581e-06
-1.30267e-06
1.63535e-05
-6.06389e-06
-1.47421e-06
1.9321e-05
-5.62466e-06
-5.05894e-07
1.73647e-05
-4.4542e-06
9.9103e-07
1.41128e-05
-3.38216e-06
2.60455e-06
1.03057e-05
-3.05691e-06
3.93303e-06
5.40156e-06
-3.93262e-06
4.47214e-06
-1.69897e-06
-5.81124e-06
3.48056e-06
-1.29044e-05
-6.02216e-06
1.0457e-06
-2.84864e-05
-1.00507e-06
-3.68959e-05
-4.92886e-06
-7.1761e-07
1.65068e-05
-6.68986e-06
-8.27005e-07
1.98766e-05
-6.39556e-06
-2.66309e-07
1.80505e-05
-5.03881e-06
5.90887e-07
1.4759e-05
-3.4641e-06
1.4846e-06
1.08199e-05
-2.47008e-06
2.17249e-06
5.717e-06
-2.79679e-06
2.38099e-06
-1.65712e-06
-4.70908e-06
1.76304e-06
-1.33035e-05
-5.5215e-06
4.78736e-07
-2.95865e-05
-4.79802e-07
-3.81379e-05
-5.02065e-06
1.97527e-13
1.65167e-05
-6.91397e-06
8.0801e-14
1.99659e-05
-6.64806e-06
-7.73779e-15
1.81578e-05
-5.17612e-06
2.60249e-14
1.4853e-05
-3.37255e-06
8.15665e-14
1.08971e-05
-2.13166e-06
9.74037e-14
5.77446e-06
-2.32527e-06
1.01469e-13
-1.65911e-06
-4.3699e-06
1.35383e-13
-1.3468e-05
-5.44857e-06
1.558e-13
-3.00116e-05
1.42864e-13
-3.86047e-05
-5.02065e-06
7.1761e-07
1.65167e-05
-6.91397e-06
8.27006e-07
1.99659e-05
-6.64806e-06
2.66309e-07
1.81578e-05
-5.17612e-06
-5.90886e-07
1.4853e-05
-3.37255e-06
-1.4846e-06
1.08971e-05
-2.13166e-06
-2.17249e-06
5.77446e-06
-2.32527e-06
-2.38099e-06
-1.65911e-06
-4.3699e-06
-1.76304e-06
-1.3468e-05
-5.44857e-06
-4.78736e-07
-3.00116e-05
4.79802e-07
-3.86047e-05
-4.92886e-06
1.30267e-06
1.65068e-05
-6.68986e-06
1.47422e-06
1.98766e-05
-6.39556e-06
5.05894e-07
1.80505e-05
-5.03881e-06
-9.9103e-07
1.4759e-05
-3.4641e-06
-2.60455e-06
1.08199e-05
-2.47008e-06
-3.93303e-06
5.717e-06
-2.79679e-06
-4.47213e-06
-1.65712e-06
-4.70908e-06
-3.48056e-06
-1.33035e-05
-5.5215e-06
-1.0457e-06
-2.95865e-05
1.00507e-06
-3.81379e-05
-4.66581e-06
1.53027e-06
1.63535e-05
-6.06389e-06
1.66233e-06
1.9321e-05
-5.62466e-06
6.0783e-07
1.73647e-05
-4.4542e-06
-1.03842e-06
1.41128e-05
-3.38216e-06
-2.8978e-06
1.03057e-05
-3.05691e-06
-4.57563e-06
5.40156e-06
-3.93262e-06
-5.5009e-06
-1.69897e-06
-5.81124e-06
-4.61881e-06
-1.29044e-05
-6.02216e-06
-1.647e-06
-2.84864e-05
1.36548e-06
-3.68959e-05
-4.04765e-06
1.08709e-06
1.53892e-05
-4.73297e-06
1.07843e-06
1.70244e-05
-3.95295e-06
3.97491e-07
1.47395e-05
-2.99154e-06
-6.61458e-07
1.17081e-05
-2.71495e-06
-1.89248e-06
8.43553e-06
-3.61942e-06
-3.13265e-06
4.31797e-06
-5.76878e-06
-4.02575e-06
-1.81073e-06
-8.06977e-06
-3.69074e-06
-1.17547e-05
-7.45138e-06
-1.63441e-06
-2.54595e-05
1.00388e-06
-3.35442e-05
-2.48358e-06
1.06025e-05
-2.25921e-06
9.57995e-06
-1.32045e-06
7.44947e-06
-7.63782e-07
5.51261e-06
-1.24055e-06
3.81688e-06
-3.08734e-06
1.7964e-06
-6.14825e-06
-1.47083e-06
-8.67932e-06
-7.34167e-06
-7.6682e-06
-1.55909e-05
-2.17397e-05
-2.6759e-06
-1.8575e-06
1.51359e-05
4.9511e-07
-1.98148e-06
8.39043e-06
4.52367e-06
-1.19671e-06
4.61762e-06
7.38542e-06
-1.45939e-07
2.7968e-06
8.57955e-06
1.09302e-06
1.52974e-06
7.66058e-06
2.38126e-06
3.34112e-07
4.35523e-06
3.55548e-06
-1.72096e-06
-6.15436e-07
3.46193e-06
-5.83294e-06
-3.47055e-06
9.19221e-07
-1.3655e-05
-2.71088e-06
-2.24994e-05
-4.78368e-06
-2.23006e-06
2.05454e-05
-8.07289e-07
-2.67137e-06
1.37379e-05
5.09519e-06
-1.76865e-06
9.40893e-06
1.02379e-05
-3.03344e-07
6.72279e-06
1.39197e-05
1.36536e-06
4.48139e-06
1.54502e-05
3.00874e-06
2.16005e-06
1.40137e-05
4.28265e-06
-1.10144e-06
9.29715e-06
3.85818e-06
-7.43437e-06
3.08412e-06
7.15042e-07
-1.90423e-05
-2.74825e-06
-3.04228e-05
-5.55027e-06
-1.70614e-06
2.13798e-05
-1.77522e-06
-2.1671e-06
1.50417e-05
4.28048e-06
-1.44666e-06
1.09871e-05
1.01004e-05
-2.48777e-07
8.23835e-06
1.49182e-05
1.09919e-06
5.75407e-06
1.79298e-05
2.3541e-06
3.04458e-06
1.78808e-05
3.20926e-06
-5.76634e-07
1.368e-05
2.7679e-06
-7.61332e-06
5.70022e-06
4.53038e-07
-2.02446e-05
-1.71841e-06
-3.22255e-05
-5.74577e-06
-8.85728e-07
2.14321e-05
-2.11382e-06
-1.15328e-06
1.52308e-05
3.93922e-06
-7.60322e-07
1.13112e-05
9.96689e-06
-1.17004e-07
8.59951e-06
1.51979e-05
5.97414e-07
6.09071e-06
1.87385e-05
1.23803e-06
3.29246e-06
1.90928e-05
1.63508e-06