/*--------------------------------*- C++ -*----------------------------------*\
  =========                 |
  \\      /  F ield         | OpenFOAM: The Open Source CFD Toolbox
   \\    /   O peration     | Website:  https://openfoam.org
    \\  /    A nd           | Version:  9
     \\/     M anipulation  |
\*---------------------------------------------------------------------------*/
FoamFile
{
    format      ascii;
    class       volVectorField;
    location    "0.3";
    object      U;
}
// * * * * * * * * * * * * * * * * * * * * * * * * * * * * * * * * * * * * * //

dimensions      [0 1 -1 0 0 0 0];

internalField   nonuniform List<vector> 
1000
(
(-0.000129341 -0.000344154 0.000377412)
(-0.00180081 -0.000234037 0.00103585)
(-0.00499585 -0.000173448 0.00125861)
(-0.00812895 -0.000247965 0.00125056)
(-0.0106053 -0.000463099 0.00107662)
(-0.0117308 -0.000786932 0.000702226)
(-0.0108272 -0.00112203 0.000131265)
(-0.00764724 -0.00127721 -0.000477795)
(-0.00286151 -0.00105016 -0.000643444)
(-0.000109303 -0.000292971 1.94879e-05)
(-0.000391791 -0.00108102 0.000615658)
(-0.00380646 -0.00110976 0.00204983)
(-0.0100385 -0.00105653 0.00251843)
(-0.0160265 -0.00123656 0.00237098)
(-0.0205903 -0.00171094 0.00177013)
(-0.0224953 -0.00241697 0.00069412)
(-0.0205737 -0.00312774 -0.000772033)
(-0.0144624 -0.00339728 -0.00208711)
(-0.00554315 -0.00278658 -0.00215673)
(-0.000338651 -0.000985233 -0.000251755)
(-0.000522196 -0.00146841 0.000438266)
(-0.00486251 -0.00184646 0.00216378)
(-0.0127012 -0.00189249 0.00273365)
(-0.0201596 -0.00207992 0.00248712)
(-0.025761 -0.00253401 0.00161842)
(-0.0279896 -0.00320604 0.000120243)
(-0.0253976 -0.00383894 -0.00186298)
(-0.0175782 -0.00400504 -0.00350404)
(-0.00639454 -0.00329026 -0.00331878)
(-0.000173514 -0.00138889 -0.000472885)
(-0.000558435 -0.00116639 0.000212)
(-0.00533945 -0.00157179 0.00199786)
(-0.0139972 -0.00164128 0.00260338)
(-0.02221 -0.00176636 0.00231807)
(-0.0283431 -0.00205992 0.00133201)
(-0.0306976 -0.00249359 -0.000364419)
(-0.0276798 -0.00287601 -0.00259666)
(-0.0189026 -0.00294125 -0.00436805)
(-0.00651416 -0.00242785 -0.00397732)
(7.09863e-05 -0.0011119 -0.000575586)
(-0.000562074 -0.000435717 8.16878e-05)
(-0.00551011 -0.000603246 0.00186691)
(-0.0145017 -0.000633985 0.00248514)
(-0.0230269 -0.000675667 0.00219249)
(-0.0293808 -0.000772276 0.00116984)
(-0.0317832 -0.000914641 -0.000599546)
(-0.0285707 -0.00104022 -0.00291971)
(-0.0193691 -0.00105567 -0.00473256)
(-0.00646946 -0.0008751 -0.00424391)
(0.000219127 -0.000416175 -0.00060929)
(-0.000562073 0.000435754 8.16889e-05)
(-0.00551011 0.000603268 0.00186691)
(-0.0145017 0.000634001 0.00248514)
(-0.0230269 0.000675679 0.00219249)
(-0.0293808 0.000772285 0.00116984)
(-0.0317832 0.000914647 -0.000599546)
(-0.0285707 0.00104023 -0.00291971)
(-0.0193691 0.00105567 -0.00473257)
(-0.00646946 0.0008751 -0.00424391)
(0.000219127 0.000416172 -0.00060929)
(-0.000558431 0.00116643 0.000212005)
(-0.00533945 0.00157181 0.00199786)
(-0.0139972 0.0016413 0.00260339)
(-0.02221 0.00176638 0.00231807)
(-0.0283431 0.00205993 0.00133201)
(-0.0306976 0.00249359 -0.000364421)
(-0.0276798 0.00287601 -0.00259666)
(-0.0189026 0.00294125 -0.00436805)
(-0.00651417 0.00242785 -0.00397732)
(7.09859e-05 0.00111189 -0.000575586)
(-0.000522185 0.00146844 0.000438279)
(-0.00486251 0.00184648 0.0021638)
(-0.0127012 0.00189251 0.00273366)
(-0.0201596 0.00207993 0.00248712)
(-0.025761 0.00253402 0.00161841)
(-0.0279896 0.00320604 0.000120241)
(-0.0253976 0.00383894 -0.00186298)
(-0.0175782 0.00400504 -0.00350405)
(-0.00639454 0.00329027 -0.00331878)
(-0.000173514 0.00138889 -0.000472886)
(-0.000391753 0.001081 0.000615699)
(-0.00380644 0.00110974 0.00204986)
(-0.0100385 0.00105653 0.00251844)
(-0.0160265 0.00123657 0.00237098)
(-0.0205903 0.00171095 0.00177013)
(-0.0224953 0.00241698 0.000694117)
(-0.0205737 0.00312774 -0.000772037)
(-0.0144624 0.00339729 -0.00208711)
(-0.00554315 0.00278659 -0.00215673)
(-0.000338651 0.000985234 -0.000251755)
(-0.000129281 0.000344097 0.000377474)
(-0.00180078 0.000234004 0.00103589)
(-0.00499588 0.000173443 0.00125862)
(-0.00812898 0.000247965 0.00125056)
(-0.0106054 0.000463101 0.00107661)
(-0.0117308 0.000786934 0.000702226)
(-0.0108272 0.00112203 0.000131264)
(-0.00764725 0.00127721 -0.000477796)
(-0.00286151 0.00105017 -0.000643445)
(-0.000109303 0.000292973 1.94888e-05)
(-0.00073371 -0.000995062 0.00305531)
(-0.00436251 -0.00111204 0.00592528)
(-0.0102722 -0.00106828 0.00669314)
(-0.0159279 -0.00108468 0.00633191)
(-0.0203415 -0.00122188 0.00511565)
(-0.0223897 -0.00148197 0.00297526)
(-0.0209648 -0.00177742 1.43212e-05)
(-0.0154631 -0.00182768 -0.00295592)
(-0.00674952 -0.00134591 -0.00408485)
(-0.000903905 -9.17345e-05 -0.00155861)
(-0.00199426 -0.00263696 0.00500102)
(-0.0103217 -0.00328981 0.0109852)
(-0.0231504 -0.00328791 0.0125264)
(-0.0350996 -0.00334872 0.0112707)
(-0.0439849 -0.00368534 0.00788814)
(-0.04766 -0.00429087 0.00245558)
(-0.0440979 -0.00493499 -0.0044402)
(-0.0324064 -0.00496627 -0.0105516)
(-0.0146432 -0.00375598 -0.0115586)
(-0.00232952 -0.00082582 -0.00403275)
(-0.00269956 -0.00312943 0.00501167)
(-0.0137336 -0.00430558 0.0121324)
(-0.0304974 -0.00442911 0.0139141)
(-0.045856 -0.00450091 0.0120169)
(-0.0569956 -0.00484296 0.00724039)
(-0.0612846 -0.00544821 -0.00022435)
(-0.0562482 -0.00602689 -0.00939549)
(-0.0409113 -0.00595474 -0.0169804)
(-0.0181593 -0.00462593 -0.0170983)
(-0.00272833 -0.00157875 -0.00571433)
(-0.00299665 -0.00233097 0.00456945)
(-0.0153627 -0.00337126 0.0119505)
(-0.034145 -0.00351067 0.0137773)
(-0.0512232 -0.00355329 0.0115553)
(-0.0634652 -0.00377094 0.0060834)
(-0.0679698 -0.00416517 -0.0024011)
(-0.06204 -0.00449932 -0.0126975)
(-0.0447277 -0.0043978 -0.0208991)
(-0.0194072 -0.00347091 -0.0202753)
(-0.00267048 -0.00136961 -0.00660273)
(-0.00308716 -0.00084627 0.0042632)
(-0.0159632 -0.00125065 0.0116598)
(-0.0355642 -0.00130878 0.0134931)
(-0.0533412 -0.00132059 0.0111588)
(-0.0660286 -0.00139006 0.00543166)
(-0.0706009 -0.00151982 -0.00344176)
(-0.0642706 -0.00162395 -0.0141602)
(-0.0461193 -0.00158031 -0.022573)
(-0.0197483 -0.00125871 -0.0215946)
(-0.00256814 -0.000528403 -0.00695274)
(-0.00308716 0.000846294 0.0042632)
(-0.0159632 0.00125066 0.0116598)
(-0.0355642 0.00130878 0.0134931)
(-0.0533412 0.00132059 0.0111588)
(-0.0660286 0.00139006 0.00543166)
(-0.0706009 0.00151982 -0.00344176)
(-0.0642706 0.00162396 -0.0141602)
(-0.0461193 0.00158031 -0.022573)
(-0.0197483 0.00125871 -0.0215946)
(-0.00256814 0.000528405 -0.00695273)
(-0.00299665 0.00233099 0.00456946)
(-0.0153627 0.00337126 0.0119505)
(-0.034145 0.00351066 0.0137773)
(-0.0512232 0.0035533 0.0115553)
(-0.0634652 0.00377094 0.0060834)
(-0.0679698 0.00416518 -0.0024011)
(-0.06204 0.00449933 -0.0126975)
(-0.0447277 0.00439781 -0.0208991)
(-0.0194072 0.00347092 -0.0202753)
(-0.00267049 0.00136961 -0.00660273)
(-0.00269955 0.00312944 0.00501169)
(-0.0137336 0.00430557 0.0121324)
(-0.0304974 0.0044291 0.0139141)
(-0.0458559 0.00450091 0.0120169)
(-0.0569956 0.00484296 0.00724039)
(-0.0612846 0.00544822 -0.000224355)
(-0.0562482 0.0060269 -0.0093955)
(-0.0409113 0.00595474 -0.0169804)
(-0.0181593 0.00462594 -0.0170983)
(-0.00272833 0.00157875 -0.00571433)
(-0.00199423 0.00263694 0.00500105)
(-0.0103217 0.00328979 0.0109852)
(-0.0231504 0.0032879 0.0125265)
(-0.0350996 0.00334872 0.0112707)
(-0.0439849 0.00368535 0.00788813)
(-0.04766 0.00429088 0.00245557)
(-0.0440979 0.004935 -0.0044402)
(-0.0324064 0.00496628 -0.0105516)
(-0.0146432 0.00375599 -0.0115586)
(-0.00232952 0.000825822 -0.00403275)
(-0.000733676 0.000995027 0.00305534)
(-0.00436249 0.00111201 0.00592531)
(-0.0102722 0.00106827 0.00669314)
(-0.0159279 0.00108467 0.00633191)
(-0.0203415 0.00122188 0.00511565)
(-0.0223897 0.00148197 0.00297526)
(-0.0209648 0.00177742 1.43215e-05)
(-0.0154631 0.00182768 -0.00295592)
(-0.00674952 0.00134592 -0.00408485)
(-0.000903906 9.1735e-05 -0.00155861)
(-0.00118243 -0.00159065 0.00853689)
(-0.00620577 -0.00189048 0.014934)
(-0.0139624 -0.00183663 0.0163541)
(-0.0213708 -0.00176576 0.0152209)
(-0.0274553 -0.0017964 0.0121605)
(-0.0309359 -0.00197861 0.00702319)
(-0.0301702 -0.00223765 -6.38984e-05)
(-0.0236892 -0.00228667 -0.00743841)
(-0.0116817 -0.00166605 -0.011076)
(-0.0021872 7.50661e-05 -0.00600701)
(-0.00328935 -0.00405704 0.014023)
(-0.0154291 -0.00521137 0.0270617)
(-0.0331563 -0.00516179 0.0297857)
(-0.0495495 -0.00496476 0.0263294)
(-0.0622232 -0.0049899 0.0181794)
(-0.0686046 -0.00533399 0.00550835)
(-0.0656963 -0.00580114 -0.0105714)
(-0.051057 -0.00576292 -0.0255637)
(-0.0256497 -0.00431657 -0.0298601)
(-0.00514417 -0.000554984 -0.0138016)
(-0.00453381 -0.00462415 0.0150058)
(-0.0209634 -0.00642386 0.0304375)
(-0.0446013 -0.00646814 0.0334295)
(-0.0660278 -0.00619089 0.0283157)
(-0.0820854 -0.00610529 0.016882)
(-0.0895736 -0.0063055 -0.000432879)
(-0.084883 -0.00657168 -0.0216431)
(-0.0652242 -0.00636313 -0.0402591)
(-0.0323005 -0.00492914 -0.0431934)
(-0.0062447 -0.0013992 -0.0187132)
(-0.00509332 -0.00335091 0.0147057)
(-0.0236763 -0.00486387 0.030738)
(-0.0503712 -0.00493447 0.0336961)
(-0.0743335 -0.00469475 0.0277088)
(-0.0920161 -0.00456158 0.0146102)
(-0.0998973 -0.00460335 -0.00501715)
(-0.0940733 -0.00465662 -0.0287713)
(-0.0716846 -0.00444001 -0.0489474)
(-0.0349391 -0.00351348 -0.0506448)
(-0.00645575 -0.00124542 -0.0212987)
(-0.00527661 -0.00119884 0.0143638)
(-0.0246879 -0.00177467 0.0304722)
(-0.0526164 -0.00180587 0.033392)
(-0.0775974 -0.00171122 0.0270832)
(-0.0959221 -0.00164798 0.0133601)
(-0.103926 -0.00164214 -0.00714733)
(-0.0975921 -0.00163588 -0.0318501)
(-0.0740646 -0.00154945 -0.0525765)
(-0.0357887 -0.00124189 -0.0536881)
(-0.00644305 -0.000483383 -0.0223226)
(-0.00527661 0.00119886 0.0143638)
(-0.0246879 0.00177467 0.0304722)
(-0.0526164 0.00180586 0.033392)
(-0.0775974 0.00171122 0.0270832)
(-0.0959221 0.00164798 0.0133601)
(-0.103926 0.00164214 -0.00714733)
(-0.0975921 0.00163589 -0.0318501)
(-0.0740646 0.00154946 -0.0525765)
(-0.0357887 0.00124189 -0.0536881)
(-0.00644305 0.000483385 -0.0223226)
(-0.00509332 0.00335093 0.0147057)
(-0.0236763 0.00486386 0.030738)
(-0.0503712 0.00493446 0.0336961)
(-0.0743335 0.00469475 0.0277088)
(-0.0920161 0.00456159 0.0146102)
(-0.0998973 0.00460335 -0.00501715)
(-0.0940733 0.00465663 -0.0287713)
(-0.0716846 0.00444002 -0.0489474)
(-0.0349391 0.00351348 -0.0506448)
(-0.00645575 0.00124542 -0.0212987)
(-0.0045338 0.00462416 0.0150058)
(-0.0209634 0.00642385 0.0304376)
(-0.0446013 0.00646814 0.0334295)
(-0.0660278 0.00619089 0.0283157)
(-0.0820854 0.00610529 0.016882)
(-0.0895736 0.00630551 -0.000432882)
(-0.084883 0.00657168 -0.0216431)
(-0.0652242 0.00636313 -0.0402591)
(-0.0323005 0.00492914 -0.0431934)
(-0.0062447 0.0013992 -0.0187132)
(-0.00328934 0.00405704 0.014023)
(-0.0154291 0.00521136 0.0270617)
(-0.0331563 0.00516179 0.0297857)
(-0.0495495 0.00496477 0.0263294)
(-0.0622232 0.0049899 0.0181794)
(-0.0686046 0.005334 0.00550834)
(-0.0656963 0.00580114 -0.0105714)
(-0.051057 0.00576292 -0.0255637)
(-0.0256497 0.00431657 -0.0298601)
(-0.00514417 0.000554984 -0.0138016)
(-0.00118242 0.00159064 0.00853688)
(-0.00620576 0.00189046 0.014934)
(-0.0139624 0.00183663 0.0163541)
(-0.0213708 0.00176576 0.0152209)
(-0.0274554 0.0017964 0.0121605)
(-0.0309359 0.00197861 0.00702319)
(-0.0301702 0.00223765 -6.38969e-05)
(-0.0236892 0.00228667 -0.00743841)
(-0.0116818 0.00166605 -0.011076)
(-0.0021872 -7.50672e-05 -0.00600701)
(-0.00164782 -0.00221301 0.0159375)
(-0.00795514 -0.00265204 0.0266372)
(-0.0173077 -0.00251409 0.0286806)
(-0.0263549 -0.00225954 0.0266805)
(-0.034475 -0.0020672 0.0217229)
(-0.0404514 -0.00205278 0.0133049)
(-0.041959 -0.00222088 0.00104602)
(-0.0359119 -0.00241776 -0.0130194)
(-0.0205559 -0.00193388 -0.0218325)
(-0.0050591 9.87329e-05 -0.0143311)
(-0.00455884 -0.00554174 0.026156)
(-0.0202173 -0.00708547 0.0478058)
(-0.0423478 -0.00676966 0.0516653)
(-0.0629902 -0.00599396 0.0456702)
(-0.0801777 -0.00528194 0.0322935)
(-0.091234 -0.00488881 0.0112646)
(-0.0918845 -0.00484316 -0.0167324)
(-0.076814 -0.0049768 -0.0453916)
(-0.0438032 -0.00412763 -0.0578051)
(-0.010762 -0.000399932 -0.031633)
(-0.00629902 -0.00618563 0.0285656)
(-0.0277063 -0.00847084 0.0541667)
(-0.0575827 -0.00814034 0.0583092)
(-0.0848242 -0.00704956 0.0495406)
(-0.106646 -0.00588824 0.030835)
(-0.119579 -0.00493579 0.00222866)
(-0.118531 -0.00438715 -0.0344734)
(-0.0974905 -0.00425904 -0.0700895)
(-0.0547461 -0.0038082 -0.081784)
(-0.0130378 -0.00108836 -0.0417639)
(-0.00708887 -0.00440991 0.028638)
(-0.0313876 -0.00628249 0.055312)
(-0.0652611 -0.00604781 0.0593546)
(-0.09578 -0.00514972 0.0491665)
(-0.119728 -0.00413505 0.0278259)
(-0.133317 -0.00321631 -0.00446722)
(-0.131034 -0.00261823 -0.0452335)
(-0.106674 -0.00245821 -0.0837918)
(-0.0591805 -0.00235914 -0.0943824)
(-0.0137387 -0.000932606 -0.046829)
(-0.00734786 -0.00156309 0.0283698)
(-0.0327484 -0.00226727 0.0552409)
(-0.0682151 -0.00218336 0.0592211)
(-0.100028 -0.00184248 0.0485332)
(-0.124796 -0.00145166 0.0262535)
(-0.138576 -0.00109293 -0.00735915)
(-0.135713 -0.000836354 -0.0496147)
(-0.110008 -0.000771261 -0.089217)
(-0.0606928 -0.000775799 -0.0992888)
(-0.013916 -0.000353857 -0.0487626)
(-0.00734786 0.0015631 0.0283698)
(-0.0327484 0.00226727 0.0552409)
(-0.0682151 0.00218336 0.0592211)
(-0.100028 0.00184248 0.0485332)
(-0.124796 0.00145166 0.0262535)
(-0.138576 0.00109293 -0.00735915)
(-0.135713 0.000836356 -0.0496147)
(-0.110008 0.000771264 -0.089217)
(-0.0606928 0.000775803 -0.0992888)
(-0.013916 0.00035386 -0.0487626)
(-0.00708887 0.00440992 0.028638)
(-0.0313876 0.00628249 0.055312)
(-0.0652611 0.0060478 0.0593546)
(-0.09578 0.00514972 0.0491665)
(-0.119728 0.00413504 0.0278259)
(-0.133317 0.00321631 -0.00446722)
(-0.131034 0.00261823 -0.0452335)
(-0.106674 0.00245821 -0.0837918)
(-0.0591805 0.00235914 -0.0943824)
(-0.0137387 0.000932609 -0.046829)
(-0.00629902 0.00618564 0.0285656)
(-0.0277063 0.00847083 0.0541667)
(-0.0575826 0.00814034 0.0583092)
(-0.0848242 0.00704955 0.0495406)
(-0.106646 0.00588824 0.030835)
(-0.119579 0.00493579 0.00222866)
(-0.118531 0.00438715 -0.0344734)
(-0.0974905 0.00425904 -0.0700895)
(-0.0547461 0.0038082 -0.081784)
(-0.0130378 0.00108836 -0.0417639)
(-0.00455884 0.00554175 0.026156)
(-0.0202173 0.00708547 0.0478058)
(-0.0423478 0.00676966 0.0516653)
(-0.0629902 0.00599397 0.0456702)
(-0.0801777 0.00528194 0.0322935)
(-0.091234 0.00488881 0.0112646)
(-0.0918845 0.00484316 -0.0167324)
(-0.076814 0.0049768 -0.0453916)
(-0.0438032 0.00412763 -0.0578051)
(-0.010762 0.000399934 -0.031633)
(-0.00164782 0.00221301 0.0159375)
(-0.00795514 0.00265203 0.0266372)
(-0.0173077 0.00251409 0.0286806)
(-0.0263549 0.00225954 0.0266805)
(-0.034475 0.0020672 0.0217229)
(-0.0404514 0.00205278 0.0133049)
(-0.041959 0.00222088 0.00104602)
(-0.0359119 0.00241776 -0.0130194)
(-0.0205559 0.00193388 -0.0218325)
(-0.00505909 -9.87322e-05 -0.0143311)
(-0.00241016 -0.00288428 0.0256429)
(-0.0101423 -0.00337822 0.0410945)
(-0.0207173 -0.00296749 0.0434228)
(-0.0310042 -0.00223921 0.0403841)
(-0.0412446 -0.00143752 0.0335924)
(-0.050778 -0.000790068 0.0217644)
(-0.0567824 -0.000567817 0.00316412)
(-0.0537599 -0.000988705 -0.020612)
(-0.0362396 -0.00134038 -0.0390446)
(-0.0111675 -0.000102327 -0.0303953)
(-0.00623673 -0.00709742 0.0418119)
(-0.0255307 -0.0088183 0.0732344)
(-0.0514353 -0.00773936 0.0779261)
(-0.0756407 -0.00558235 0.0692508)
(-0.0973904 -0.00301996 0.0507532)
(-0.114578 -0.000606968 0.0208967)
(-0.12183 0.000873661 -0.0216154)
(-0.110206 0.000325722 -0.0701537)
(-0.0723937 -0.00137492 -0.0994257)
(-0.021551 -0.00049021 -0.064458)
(-0.00843903 -0.00777237 0.0460355)
(-0.0347955 -0.0102988 0.0832895)
(-0.070056 -0.0089982 0.0884485)
(-0.10214 -0.00611381 0.0761247)
(-0.129434 -0.00253766 0.0505457)
(-0.148872 0.00101968 0.0103457)
(-0.154228 0.00344752 -0.0447599)
(-0.135981 0.0030166 -0.104702)
(-0.0876759 0.000217126 -0.136061)
(-0.0254972 -0.000725278 -0.0827008)
(-0.00940664 -0.00546282 0.0466604)
(-0.0392495 -0.00751416 0.0856097)
(-0.0792555 -0.0065373 0.0907484)
(-0.11514 -0.00426214 0.076697)
(-0.144802 -0.00140525 0.0478436)
(-0.164663 0.00145761 0.0029522)
(-0.168304 0.00337581 -0.0575721)
(-0.146418 0.00302899 -0.12213)
(-0.0935384 0.000718664 -0.153651)
(-0.0269096 -0.000509264 -0.0911485)
(-0.00970867 -0.00192077 0.0465511)
(-0.0408415 -0.00268789 0.0858856)
(-0.0826865 -0.00233247 0.0910186)
(-0.120008 -0.00148768 0.0764228)
(-0.150504 -0.000421847 0.0464958)
(-0.170446 0.000648393 3.18688e-05)
(-0.173342 0.00133783 -0.0623702)
(-0.150054 0.00119722 -0.128551)
(-0.0955879 0.000334886 -0.160111)
(-0.0274007 -0.000172522 -0.0942366)
(-0.00970867 0.00192079 0.0465511)
(-0.0408415 0.00268789 0.0858856)
(-0.0826865 0.00233246 0.0910186)
(-0.120008 0.00148767 0.0764228)
(-0.150504 0.00042184 0.0464958)
(-0.170446 -0.000648398 3.18704e-05)
(-0.173342 -0.00133783 -0.0623702)
(-0.150054 -0.00119722 -0.128551)
(-0.0955879 -0.000334882 -0.160111)
(-0.0274007 0.000172526 -0.0942366)
(-0.00940664 0.00546284 0.0466604)
(-0.0392495 0.00751416 0.0856097)
(-0.0792555 0.0065373 0.0907484)
(-0.11514 0.00426213 0.076697)
(-0.144802 0.00140525 0.0478436)
(-0.164663 -0.00145761 0.0029522)
(-0.168304 -0.00337581 -0.0575721)
(-0.146418 -0.00302899 -0.12213)
(-0.0935384 -0.00071866 -0.153651)
(-0.0269096 0.000509268 -0.0911485)
(-0.00843903 0.00777238 0.0460355)
(-0.0347955 0.0102988 0.0832895)
(-0.070056 0.00899819 0.0884485)
(-0.10214 0.00611381 0.0761247)
(-0.129434 0.00253765 0.0505457)
(-0.148872 -0.00101968 0.0103457)
(-0.154228 -0.00344752 -0.0447598)
(-0.135981 -0.00301659 -0.104702)
(-0.0876759 -0.000217123 -0.136061)
(-0.0254972 0.000725281 -0.0827007)
(-0.00623673 0.00709742 0.0418119)
(-0.0255307 0.0088183 0.0732344)
(-0.0514353 0.00773936 0.0779261)
(-0.0756407 0.00558235 0.0692508)
(-0.0973903 0.00301996 0.0507532)
(-0.114578 0.000606969 0.0208967)
(-0.12183 -0.000873658 -0.0216154)
(-0.110206 -0.000325719 -0.0701537)
(-0.0723937 0.00137493 -0.0994256)
(-0.021551 0.000490212 -0.064458)
(-0.00241016 0.00288428 0.0256429)
(-0.0101423 0.00337822 0.0410945)
(-0.0207173 0.00296749 0.0434228)
(-0.0310042 0.00223921 0.0403841)
(-0.0412446 0.00143752 0.0335924)
(-0.050778 0.000790068 0.0217644)
(-0.0567824 0.000567818 0.00316412)
(-0.0537599 0.000988706 -0.020612)
(-0.0362396 0.00134038 -0.0390446)
(-0.0111675 0.00010233 -0.0303953)
(-0.00401574 -0.00363102 0.0384838)
(-0.0135336 -0.00399027 0.0579525)
(-0.0241612 -0.00292343 0.0592265)
(-0.0341351 -0.00116309 0.0543407)
(-0.0453603 0.00100162 0.0454761)
(-0.0586334 0.00322905 0.0302161)
(-0.0713055 0.00467536 0.00459669)
(-0.0752452 0.00401615 -0.0318008)
(-0.0595841 0.0014848 -0.0656605)
(-0.0217538 -0.000442542 -0.0602578)
(-0.00899221 -0.00872332 0.0618617)
(-0.032057 -0.0101832 0.102747)
(-0.0595638 -0.00742764 0.106839)
(-0.0841359 -0.00251125 0.0948686)
(-0.107343 0.00372297 0.0715458)
(-0.129066 0.0102187 0.0334037)
(-0.144348 0.0145852 -0.0243939)
(-0.141255 0.0131124 -0.0979274)
(-0.106805 0.00562876 -0.155531)
(-0.0372738 -0.00108068 -0.121538)
(-0.0115519 -0.00932688 0.0681141)
(-0.0425656 -0.0116534 0.117018)
(-0.0803225 -0.00841596 0.12213)
(-0.112947 -0.00226352 0.106236)
(-0.141098 0.00558789 0.0749309)
(-0.163718 0.0135862 0.0247444)
(-0.175472 0.0186545 -0.0485188)
(-0.164953 0.016536 -0.137883)
(-0.121919 0.00729718 -0.203013)
(-0.0419784 -0.000840202 -0.15078)
(-0.0125789 -0.00645101 0.0693388)
(-0.0473354 -0.00838492 0.120703)
(-0.0900869 -0.00601504 0.126149)
(-0.126335 -0.00137561 0.108672)
(-0.156166 0.00452712 0.0741086)
(-0.178077 0.0104129 0.0190616)
(-0.187005 0.0139006 -0.0603092)
(-0.172665 0.0120453 -0.155788)
(-0.126871 0.00527742 -0.22357)
(-0.0437419 -0.000410038 -0.163301)
(-0.0128602 -0.00224873 0.0694074)
(-0.0489197 -0.00297726 0.121399)
(-0.0935101 -0.00212865 0.12702)
(-0.131035 -0.000447363 0.109157)
(-0.16136 0.00168301 0.0736616)
(-0.182865 0.00378019 0.0171178)
(-0.190696 0.00496743 -0.0642548)
(-0.175129 0.00424587 -0.161932)
(-0.128712 0.00185225 -0.230803)
(-0.0444955 -0.000103182 -0.167785)
(-0.0128602 0.00224874 0.0694074)
(-0.0489197 0.00297725 0.121399)
(-0.0935101 0.00212864 0.12702)
(-0.131035 0.000447353 0.109157)
(-0.16136 -0.00168302 0.0736616)
(-0.182865 -0.0037802 0.0171178)
(-0.190696 -0.00496743 -0.0642548)
(-0.175129 -0.00424587 -0.161932)
(-0.128712 -0.00185225 -0.230803)
(-0.0444955 0.000103187 -0.167785)
(-0.0125789 0.00645102 0.0693388)
(-0.0473354 0.00838492 0.120703)
(-0.0900869 0.00601503 0.126149)
(-0.126335 0.0013756 0.108672)
(-0.156166 -0.00452712 0.0741086)
(-0.178077 -0.0104129 0.0190616)
(-0.187005 -0.0139006 -0.0603092)
(-0.172665 -0.0120453 -0.155788)
(-0.126871 -0.00527741 -0.22357)
(-0.0437419 0.000410042 -0.163301)
(-0.0115519 0.00932688 0.0681141)
(-0.0425656 0.0116534 0.117018)
(-0.0803225 0.00841596 0.12213)
(-0.112947 0.00226352 0.106236)
(-0.141098 -0.00558789 0.0749309)
(-0.163718 -0.0135862 0.0247444)
(-0.175472 -0.0186545 -0.0485188)
(-0.164953 -0.016536 -0.137883)
(-0.121919 -0.00729718 -0.203013)
(-0.0419784 0.000840205 -0.15078)
(-0.00899221 0.00872332 0.0618617)
(-0.032057 0.0101832 0.102747)
(-0.0595638 0.00742764 0.106839)
(-0.0841359 0.00251125 0.0948686)
(-0.107343 -0.00372297 0.0715458)
(-0.129066 -0.0102187 0.0334037)
(-0.144348 -0.0145852 -0.0243939)
(-0.141255 -0.0131124 -0.0979274)
(-0.106805 -0.00562876 -0.155531)
(-0.0372738 0.00108069 -0.121538)
(-0.00401575 0.00363102 0.0384838)
(-0.0135336 0.00399027 0.0579525)
(-0.0241612 0.00292342 0.0592265)
(-0.0341351 0.00116309 0.0543407)
(-0.0453603 -0.00100162 0.0454761)
(-0.0586334 -0.00322904 0.0302161)
(-0.0713055 -0.00467536 0.00459669)
(-0.0752452 -0.00401615 -0.0318008)
(-0.0595841 -0.0014848 -0.0656605)
(-0.0217538 0.000442542 -0.0602578)
(-0.00789178 -0.00462421 0.0568347)
(-0.0199401 -0.00461595 0.076069)
(-0.0272332 -0.00237808 0.0729209)
(-0.0329181 0.00104099 0.0640759)
(-0.0414583 0.00526922 0.052317)
(-0.0561034 0.00988693 0.0339759)
(-0.075971 0.0133755 0.00246768)
(-0.0911169 0.0126906 -0.0476581)
(-0.0855506 0.00670433 -0.102522)
(-0.0352917 -0.00111416 -0.111741)
(-0.0145796 -0.0106755 0.0886591)
(-0.0414501 -0.011352 0.134322)
(-0.0645218 -0.00583721 0.133597)
(-0.0813503 0.00308858 0.116351)
(-0.0973392 0.0142625 0.0885859)
(-0.116066 0.0260814 0.0450036)
(-0.135842 0.0342384 -0.0234801)
(-0.1444 0.0314072 -0.121271)
(-0.127565 0.015261 -0.217471)
(-0.0495173 -0.00342156 -0.210083)
(-0.0173234 -0.0110032 0.0966749)
(-0.0520947 -0.0126828 0.15266)
(-0.0848708 -0.0065816 0.153851)
(-0.107842 0.00383138 0.133315)
(-0.125564 0.0167833 0.098123)
(-0.14111 0.0297545 0.0429184)
(-0.153586 0.0374484 -0.0410918)
(-0.153094 0.0325382 -0.157199)
(-0.132331 0.0144371 -0.268018)
(-0.0510268 -0.00305957 -0.250081)
(-0.0182279 -0.00744297 0.098215)
(-0.056382 -0.0089932 0.157431)
(-0.0935776 -0.00470403 0.159584)
(-0.119004 0.0028157 0.138171)
(-0.136647 0.0121057 0.100508)
(-0.14942 0.0210814 0.0412145)
(-0.157442 0.0258016 -0.0483447)
(-0.152988 0.021564 -0.171341)
(-0.132655 0.00907378 -0.287927)
(-0.0518524 -0.00174288 -0.266125)
(-0.0184016 -0.00256561 0.0983291)
(-0.0575927 -0.00317074 0.158384)
(-0.0962628 -0.00166664 0.160991)
(-0.122427 0.000998994 0.139552)
(-0.139869 0.004273 0.101366)
(-0.151529 0.00737729 0.0409514)
(-0.158078 0.00889836 -0.0504212)
(-0.152724 0.00728979 -0.176043)
(-0.133254 0.00300214 -0.29496)
(-0.052548 -0.000516664 -0.271945)
(-0.0184016 0.00256562 0.0983291)
(-0.0575927 0.00317074 0.158384)
(-0.0962628 0.00166663 0.160991)
(-0.122427 -0.000999007 0.139552)
(-0.139869 -0.00427301 0.101366)
(-0.151529 -0.0073773 0.0409514)
(-0.158078 -0.00889835 -0.0504212)
(-0.152724 -0.00728978 -0.176043)
(-0.133254 -0.00300214 -0.29496)
(-0.052548 0.000516671 -0.271945)
(-0.0182279 0.00744298 0.098215)
(-0.056382 0.00899319 0.157431)
(-0.0935776 0.00470402 0.159584)
(-0.119004 -0.00281572 0.138171)
(-0.136647 -0.0121057 0.100508)
(-0.14942 -0.0210815 0.0412145)
(-0.157442 -0.0258016 -0.0483447)
(-0.152988 -0.021564 -0.171341)
(-0.132655 -0.00907377 -0.287927)
(-0.0518524 0.00174288 -0.266125)
(-0.0173234 0.0110032 0.0966749)
(-0.0520947 0.0126828 0.15266)
(-0.0848708 0.00658159 0.153851)
(-0.107842 -0.00383139 0.133315)
(-0.125564 -0.0167833 0.098123)
(-0.14111 -0.0297545 0.0429184)
(-0.153586 -0.0374484 -0.0410918)
(-0.153094 -0.0325382 -0.157199)
(-0.132331 -0.0144371 -0.268018)
(-0.0510268 0.00305957 -0.250081)
(-0.0145796 0.0106755 0.0886591)
(-0.0414501 0.011352 0.134322)
(-0.0645218 0.00583721 0.133597)
(-0.0813503 -0.00308859 0.116351)
(-0.0973392 -0.0142625 0.0885859)
(-0.116066 -0.0260814 0.0450036)
(-0.135842 -0.0342384 -0.0234801)
(-0.1444 -0.0314072 -0.121271)
(-0.127565 -0.015261 -0.217471)
(-0.0495173 0.00342156 -0.210083)
(-0.00789178 0.00462421 0.0568347)
(-0.0199401 0.00461595 0.0760689)
(-0.0272332 0.00237808 0.0729209)
(-0.0329181 -0.00104099 0.0640759)
(-0.0414583 -0.00526922 0.052317)
(-0.0561034 -0.00988693 0.0339759)
(-0.075971 -0.0133755 0.00246768)
(-0.091117 -0.0126906 -0.0476581)
(-0.0855506 -0.00670433 -0.102522)
(-0.0352917 0.00111416 -0.111741)
(-0.0171377 -0.0064364 0.0816304)
(-0.0317546 -0.0061337 0.0911524)
(-0.0252746 -0.00260023 0.0790764)
(-0.0181764 0.00261298 0.0634734)
(-0.0166235 0.00876773 0.0481368)
(-0.0259808 0.015638 0.0281167)
(-0.0494663 0.0214978 -0.0061327)
(-0.0772986 0.0211712 -0.066962)
(-0.0959708 0.0108514 -0.145368)
(-0.041503 -0.00510533 -0.190496)
(-0.027473 -0.0139832 0.120571)
(-0.0576872 -0.0141334 0.160647)
(-0.0593134 -0.00597565 0.149495)
(-0.0518444 0.00644354 0.123787)
(-0.0451581 0.0213021 0.092536)
(-0.0460673 0.0371347 0.0495823)
(-0.0599677 0.0492258 -0.0182068)
(-0.0775222 0.0461934 -0.128621)
(-0.0995258 0.0209061 -0.264217)
(-0.0369141 -0.0119833 -0.318588)
(-0.0306383 -0.0136554 0.129043)
(-0.0681089 -0.015184 0.182154)
(-0.0767515 -0.00680559 0.17417)
(-0.0708348 0.00650611 0.146245)
(-0.0604498 0.0224617 0.109367)
(-0.0521631 0.0384219 0.0573832)
(-0.0536161 0.0486828 -0.0225049)
(-0.0591633 0.0425253 -0.149985)
(-0.083148 0.0164365 -0.305767)
(-0.0295381 -0.00999987 -0.359928)
(-0.0313825 -0.00893438 0.130372)
(-0.0714198 -0.0104994 0.187505)
(-0.0830923 -0.00489198 0.181317)
(-0.0777891 0.00425316 0.153498)
(-0.0654212 0.0152072 0.115331)
(-0.0524133 0.0257829 0.0605668)
(-0.0480474 0.0317882 -0.0234439)
(-0.0492832 0.0265322 -0.157395)
(-0.0769104 0.00954579 -0.320988)
(-0.0282394 -0.00562561 -0.375407)
(-0.031415 -0.00302779 0.130368)
(-0.0720192 -0.00365706 0.188462)
(-0.0845197 -0.00173907 0.183031)
(-0.0792928 0.00142659 0.155602)
(-0.0661645 0.00520573 0.117376)
(-0.0515606 0.00879392 0.0619248)
(-0.0455558 0.0106995 -0.0235252)
(-0.0461869 0.00874337 -0.160084)
(-0.0760466 0.00307629 -0.32667)
(-0.0286463 -0.00169679 -0.381145)
(-0.031415 0.00302779 0.130368)
(-0.0720192 0.00365705 0.188462)
(-0.0845197 0.00173905 0.183031)
(-0.0792928 -0.0014266 0.155602)
(-0.0661645 -0.00520574 0.117376)
(-0.0515606 -0.00879393 0.0619248)
(-0.0455558 -0.0106995 -0.0235252)
(-0.0461869 -0.00874337 -0.160084)
(-0.0760466 -0.00307628 -0.32667)
(-0.0286463 0.0016968 -0.381145)
(-0.0313825 0.00893438 0.130372)
(-0.0714198 0.0104994 0.187505)
(-0.0830923 0.00489197 0.181317)
(-0.0777891 -0.00425317 0.153498)
(-0.0654212 -0.0152072 0.115331)
(-0.0524133 -0.0257829 0.0605668)
(-0.0480474 -0.0317882 -0.0234439)
(-0.0492832 -0.0265322 -0.157395)
(-0.0769104 -0.00954578 -0.320988)
(-0.0282394 0.00562561 -0.375407)
(-0.0306383 0.0136554 0.129043)
(-0.0681089 0.015184 0.182154)
(-0.0767515 0.00680559 0.17417)
(-0.0708348 -0.00650611 0.146245)
(-0.0604498 -0.0224617 0.109367)
(-0.0521631 -0.0384219 0.0573832)
(-0.0536161 -0.0486828 -0.0225049)
(-0.0591633 -0.0425253 -0.149985)
(-0.083148 -0.0164365 -0.305767)
(-0.0295381 0.00999987 -0.359928)
(-0.027473 0.0139832 0.120571)
(-0.0576872 0.0141334 0.160647)
(-0.0593134 0.00597565 0.149495)
(-0.0518444 -0.00644354 0.123787)
(-0.0451581 -0.0213021 0.092536)
(-0.0460673 -0.0371347 0.0495823)
(-0.0599677 -0.0492258 -0.0182068)
(-0.0775222 -0.0461934 -0.128621)
(-0.0995258 -0.0209061 -0.264217)
(-0.0369141 0.0119833 -0.318588)
(-0.0171377 0.0064364 0.0816304)
(-0.0317546 0.0061337 0.0911524)
(-0.0252746 0.00260022 0.0790764)
(-0.0181764 -0.00261298 0.0634734)
(-0.0166236 -0.00876773 0.0481368)
(-0.0259808 -0.015638 0.0281167)
(-0.0494663 -0.0214978 -0.00613269)
(-0.0772986 -0.0211712 -0.066962)
(-0.0959708 -0.0108514 -0.145368)
(-0.041503 0.00510533 -0.190496)
(-0.0241113 -0.0109711 0.151313)
(-0.0222171 -0.0108046 0.0988268)
(0.0229664 -0.00635491 0.063337)
(0.0546688 -0.000153108 0.0423247)
(0.0747255 0.00655481 0.0266748)
(0.0782414 0.0139933 0.00977012)
(0.0582913 0.0213462 -0.018083)
(0.0230908 0.0213154 -0.0751075)
(-0.0428799 0.00670606 -0.170191)
(-0.00702669 -0.0165578 -0.257078)
(-0.0433806 -0.0218618 0.210554)
(-0.046038 -0.0232065 0.167946)
(0.0139022 -0.0144311 0.124669)
(0.0660371 -0.00156361 0.0928666)
(0.108699 0.0131303 0.0649496)
(0.136938 0.0289658 0.0333148)
(0.137096 0.0439099 -0.0143926)
(0.120854 0.0437792 -0.104218)
(0.0339183 0.0134067 -0.252811)
(0.0416001 -0.0292335 -0.366756)
(-0.0486924 -0.0189289 0.220243)
(-0.0558071 -0.0227298 0.186444)
(0.00306401 -0.0152139 0.145548)
(0.0594455 -0.00312466 0.112746)
(0.110437 0.0114149 0.0816476)
(0.151804 0.0265463 0.0446934)
(0.165502 0.0391814 -0.00982151)
(0.163428 0.036904 -0.108643)
(0.0724698 0.00922503 -0.27303)
(0.0603106 -0.020183 -0.393144)
(-0.0494153 -0.0116091 0.220863)
(-0.0578091 -0.0148904 0.189716)
(-6.09059e-05 -0.0103536 0.15058)
(0.057141 -0.00262455 0.118543)
(0.110622 0.00681719 0.0871683)
(0.156619 0.0165494 0.0486557)
(0.174792 0.0240893 -0.00845158)
(0.176738 0.0220122 -0.110625)
(0.0818689 0.00574389 -0.280371)
(0.0632211 -0.0102603 -0.402284)
(-0.0492298 -0.00381668 0.220437)
(-0.0576193 -0.00505474 0.189777)
(-4.76269e-05 -0.00357516 0.15132)
(0.0574336 -0.000990609 0.119819)
(0.111581 0.00218589 0.08866)
(0.158793 0.00544929 0.0498179)
(0.177876 0.00789345 -0.00825791)
(0.180057 0.00714972 -0.111894)
(0.082776 0.00196997 -0.283507)