/*--------------------------------*- C++ -*----------------------------------*\
  =========                 |
  \\      /  F ield         | OpenFOAM: The Open Source CFD Toolbox
   \\    /   O peration     | Website:  https://openfoam.org
    \\  /    A nd           | Version:  9
     \\/     M anipulation  |
\*---------------------------------------------------------------------------*/
FoamFile
{
    format      ascii;
    class       volScalarField;
    location    "0.08";
    object      p;
}
// * * * * * * * * * * * * * * * * * * * * * * * * * * * * * * * * * * * * * //

dimensions      [0 2 -2 0 0 0 0];

internalField   nonuniform List<scalar> 
1000
(
1.97101e-08
-4.01695e-05
0.00128421
0.00366177
0.00683956
0.010468
0.0140707
0.017092
0.0189674
0.019091
0.00011307
-0.000150672
0.00116366
0.00358825
0.00685197
0.0105822
0.0142916
0.0173951
0.01927
0.0191314
0.000265732
-9.06639e-05
0.00120106
0.00362897
0.00691599
0.0106901
0.014448
0.0175833
0.0194465
0.0191801
0.000388552
-1.44763e-05
0.00125835
0.003681
0.0069754
0.0107659
0.014542
0.0176869
0.0195398
0.0192185
0.000455684
3.60082e-05
0.00129908
0.00371593
0.00700969
0.010804
0.0145851
0.0177317
0.0195795
0.0192391
0.000455602
3.59391e-05
0.00129902
0.00371588
0.00700966
0.0108039
0.014585
0.0177317
0.0195795
0.0192391
0.000388285
-1.46965e-05
0.00125818
0.00368087
0.00697529
0.0107658
0.014542
0.0176868
0.0195397
0.0192185
0.000265179
-9.10829e-05
0.00120074
0.00362874
0.00691581
0.0106899
0.0144478
0.0175832
0.0194464
0.01918
0.000112099
-0.00015134
0.00116321
0.00358793
0.00685173
0.010582
0.0142914
0.0173949
0.0192699
0.0191313
-1.2515e-06
-4.11715e-05
0.00128359
0.00366137
0.00683927
0.0104678
0.0140705
0.0170918
0.0189673
0.0190909
-4.66458e-05
-0.000152186
0.00116725
0.00351794
0.00667493
0.0103083
0.013968
0.0170851
0.0190643
0.0191539
0.000329275
-2.3096e-05
0.00125578
0.00359173
0.00675178
0.0104074
0.0140973
0.0172388
0.019187
0.0189601
0.000615449
0.000142587
0.00138469
0.00369615
0.00684649
0.010508
0.0142113
0.0173593
0.0192833
0.0189088
0.000799689
0.000272687
0.00148803
0.00377967
0.00692006
0.0105811
0.0142887
0.0174363
0.0193443
0.0189067
0.000889546
0.000342815
0.00154482
0.00382547
0.0069592
0.0106181
0.014326
0.0174722
0.0193732
0.0189142
0.000889475
0.000342753
0.00154477
0.00382543
0.00695917
0.0106181
0.0143259
0.0174722
0.0193732
0.0189141
0.000799455
0.00027249
0.00148787
0.00377955
0.00691996
0.0105811
0.0142886
0.0174362
0.0193443
0.0189067
0.000615006
0.000142226
0.00138441
0.00369594
0.00684633
0.0105079
0.0142112
0.0173592
0.0192832
0.0189088
0.000328558
-2.36477e-05
0.00125538
0.00359144
0.00675156
0.0104072
0.0140971
0.0172387
0.0191869
0.01896
-4.76659e-05
-0.000152931
0.00116674
0.00351758
0.00667466
0.0103081
0.0139678
0.017085
0.0190642
0.0191538
-0.00165441
-0.00182358
-0.000337612
0.00230235
0.00586877
0.0100368
0.0143392
0.0181318
0.0206508
0.0208435
-0.00109837
-0.00158158
-0.000153951
0.00245089
0.00599989
0.0101773
0.0145022
0.0183168
0.0207893
0.0205606
-0.000685794
-0.00132643
4.70493e-05
0.00260739
0.006128
0.0102978
0.0146284
0.0184465
0.0208867
0.0204664
-0.000426973
-0.00113749
0.000196446
0.00272199
0.00621849
0.0103772
0.0147059
0.0185208
0.020941
0.0204436
-0.00030404
-0.00104017
0.000273885
0.00278089
0.00626366
0.0104146
0.0147404
0.0185528
0.0209652
0.0204424
-0.000304105
-0.00104023
0.000273837
0.00278085
0.00626363
0.0104146
0.0147404
0.0185528
0.0209652
0.0204423
-0.000427178
-0.00113767
0.000196297
0.00272187
0.00621839
0.0103771
0.0147058
0.0185208
0.0209409
0.0204435
-0.000686155
-0.00132674
4.6795e-05
0.00260719
0.00612784
0.0102977
0.0146283
0.0184463
0.0208866
0.0204663
-0.00109889
-0.00158203
-0.000154304
0.00245062
0.00599967
0.0101771
0.014502
0.0183167
0.0207891
0.0205604
-0.00165511
-0.00182414
-0.000338047
0.00230201
0.0058685
0.0100365
0.014339
0.0181316
0.0206506
0.0208434
-0.00496641
-0.00514237
-0.00329331
-7.06442e-05
0.00428668
0.00945952
0.0149909
0.020118
0.0237633
0.0243931
-0.00418492
-0.00476895
-0.00300057
0.000167306
0.00449255
0.00967189
0.0152308
0.0203966
0.0239822
0.0240558
-0.00360471
-0.00439713
-0.00271052
0.000384143
0.00465724
0.00981417
0.015375
0.0205515
0.0241043
0.0239392
-0.00324366
-0.00413007
-0.00250464
0.000532
0.00476075
0.00989176
0.0154454
0.0206219
0.0241531
0.0239043
-0.0030743
-0.00399562
-0.00240131
0.000604429
0.00480825
0.00992292
0.0154706
0.0206463
0.0241734
0.023897
-0.00307436
-0.00399567
-0.00240136
0.000604386
0.00480821
0.00992287
0.0154706
0.0206462
0.0241733
0.023897
-0.00324384
-0.00413024
-0.00250479
0.000531872
0.00476063
0.00989164
0.0154453
0.0206218
0.024153
0.0239041
-0.003605
-0.00439741
-0.00271076
0.000383939
0.00465705
0.00981398
0.0153748
0.0205513
0.0241041
0.023939
-0.00418532
-0.00476932
-0.00300088
0.000167038
0.0044923
0.00967163
0.0152305
0.0203964
0.0239819
0.0240556
-0.00496689
-0.0051428
-0.00329367
-7.09587e-05
0.00428639
0.00945921
0.0149906
0.0201177
0.0237631
0.0243928
-0.0105709
-0.0106087
-0.0081231
-0.00398376
0.00156946
0.00828638
0.0157076
0.0230764
0.0288264
0.0307065
-0.0094455
-0.0100419
-0.00768513
-0.00364289
0.00184641
0.00853651
0.0160186
0.023474
0.0291632
0.0303891
-0.00862346
-0.00951065
-0.00728889
-0.00337316
0.00202048
0.00865826
0.0161366
0.0236267
0.0293004
0.0302884
-0.00812067
-0.00914069
-0.00701971
-0.00320326
0.00211062
0.00869654
0.0161603
0.0236655
0.0293412
0.0302589
-0.00788837
-0.00895814
-0.00688821
-0.00312412
0.00214583
0.00870017
0.0161559
0.0236664
0.0293465
0.0302499
-0.00788841
-0.00895818
-0.00688826
-0.00312417
0.00214577
0.00870012
0.0161558
0.0236664
0.0293464
0.0302499
-0.00812081
-0.00914083
-0.00701984
-0.0032034
0.00211046
0.00869637
0.0161602
0.0236654
0.0293411
0.0302588
-0.00862369
-0.00951086
-0.00728909
-0.00337337
0.00202025
0.008658
0.0161364
0.0236265
0.0293002
0.0302882
-0.0094458
-0.0100422
-0.00768538
-0.00364314
0.00184612
0.00853619
0.0160182
0.0234738
0.029163
0.0303889
-0.0105712
-0.010609
-0.00812338
-0.00398404
0.00156914
0.00828603
0.0157072
0.0230762
0.0288262
0.0307063
-0.0195077
-0.0189892
-0.0154317
-0.00997793
-0.00283215
0.00590804
0.0160173
0.0269145
0.0365191
0.0416107
-0.01783
-0.0181422
-0.0148419
-0.00959336
-0.00258604
0.00609402
0.0162226
0.0273034
0.036943
0.0415698
-0.0166497
-0.0173973
-0.0143441
-0.00933057
-0.00251106
0.00604712
0.0161472
0.0273137
0.0370326
0.0415978
-0.0159491
-0.0168944
-0.0140167
-0.00917846
-0.00250219
0.00596141
0.0160209
0.0272319
0.037015
0.0416136
-0.015632
-0.016651
-0.0138596
-0.00911039
-0.00250933
0.0059032
0.0159379
0.0271668
0.0369845
0.0416143
-0.0156321
-0.016651
-0.0138596
-0.00911045
-0.0025094
0.00590314
0.0159379
0.0271668
0.0369845
0.0416143
-0.0159492
-0.0168945
-0.0140168
-0.0091786
-0.00250237
0.00596123
0.0160208
0.0272318
0.0370149
0.0416135
-0.0166499
-0.0173975
-0.0143443
-0.00933077
-0.00251133
0.00604684
0.016147
0.0273135
0.0370324
0.0415977
-0.0178302
-0.0181424
-0.0148421
-0.0095936
-0.00258636
0.00609367
0.0162223
0.0273032
0.0369429
0.0415696
-0.0195079
-0.0189894
-0.0154319
-0.0099782
-0.0028325
0.00590767
0.016017
0.0269143
0.0365189
0.0416104
-0.0337704
-0.0313755
-0.0259011
-0.0185916
-0.00947568
0.00165012
0.0151383
0.03115
0.0473401
0.0604406
-0.0311649
-0.0301239
-0.0252749
-0.0184545
-0.00969081
0.00118267
0.0145061
0.0307157
0.0472422
0.0607101
-0.0294308
-0.0290834
-0.0247263
-0.0183625
-0.00996265
0.000640209
0.0138076
0.0301601
0.0470314
0.0608866
-0.0284487
-0.0284034
-0.0243598
-0.0183058
-0.0101671
0.00023619
0.0132954
0.0297211
0.0467992
0.0609572
-0.0280167
-0.0280802
-0.0241815
-0.018277
-0.0102692
3.29485e-05
0.0130408
0.0294985
0.0466691
0.0609713
-0.0280167
-0.0280803
-0.0241815
-0.018277
-0.0102693
3.28896e-05
0.0130408
0.0294985
0.0466691
0.0609712
-0.0284487
-0.0284034
-0.0243599
-0.0183059
-0.0101672
0.000236018
0.0132952
0.0297209
0.046799
0.0609571
-0.0294309
-0.0290835
-0.0247264
-0.0183627
-0.00996294
0.000639941
0.0138075
0.0301598
0.0470312
0.0608864
-0.031165
-0.030124
-0.025275
-0.0184548
-0.00969118
0.00118233
0.0145059
0.0307155
0.047242
0.0607099
-0.0337705
-0.0313756
-0.0259013
-0.0185919
-0.00947608
0.00164975
0.0151381
0.0311498
0.0473398
0.0604403
-0.0585816
-0.0492828
-0.0400121
-0.02989
-0.0183584
-0.00471002
0.0121846
0.0344055
0.0597838
0.091804
-0.0547616
-0.0476587
-0.039781
-0.0306636
-0.0198041
-0.00681047
0.00922391
0.0312052
0.0565901
0.0917482
-0.0522658
-0.0462122
-0.0392681
-0.0309906
-0.0207855
-0.00835534
0.00715248
0.0291309
0.0550259
0.0918748
-0.0508985
-0.0452767
-0.0388673
-0.0311052
-0.0213394
-0.00927993
0.00595373
0.0279609
0.0542135
0.0919815
-0.0503128
-0.0448386
-0.0386575
-0.0311316
-0.0215772
-0.00969255
0.00542904
0.0274569
0.0538659
0.0920127
-0.0503128
-0.0448386
-0.0386575
-0.0311317
-0.0215773
-0.0096926
0.00542901
0.0274568
0.0538658
0.0920126
-0.0508985
-0.0452767
-0.0388674
-0.0311053
-0.0213396
-0.00928008
0.00595361
0.0279608
0.0542133
0.0919813
-0.0522658
-0.0462123
-0.0392683
-0.0309909
-0.0207857
-0.00835558
0.00715228
0.0291307
0.0550257
0.0918746
-0.0547616
-0.0476588
-0.0397811
-0.0306639
-0.0198045
-0.00681076
0.00922366
0.031205
0.0565898
0.0917479
-0.0585817
-0.0492828
-0.0400123
-0.0298904
-0.0183588
-0.00471031
0.0121844
0.0344052
0.0597835
0.0918036
-0.0957482
-0.0711418
-0.0568276
-0.042532
-0.0280909
-0.0122841
0.00715142
0.0379609
0.0734376
0.155557
-0.0885911
-0.0690118
-0.0578445
-0.045033
-0.0314454
-0.0166514
0.00121161
0.0319764
0.0636339
0.161299
-0.0847103
-0.0669917
-0.0574881
-0.0459844
-0.033336
-0.0193659
-0.00249198
0.0283471
0.0596837
0.164709
-0.0827818
-0.0656811
-0.0570723
-0.0463091
-0.0342816
-0.0208432
-0.00449966
0.0264713
0.0582091
0.165959
-0.0819945
-0.065072
-0.0568218
-0.0463913
-0.0346599
-0.0214708
-0.00534803
0.0257039
0.0576749
0.166276
-0.0819945
-0.065072
-0.0568219
-0.0463914
-0.03466
-0.0214709
-0.00534807
0.0257038
0.0576748
0.166276
-0.0827818
-0.0656812
-0.0570725
-0.0463093
-0.0342818
-0.0208433
-0.0044998
0.0264711
0.058209
0.165959
-0.0847103
-0.0669918
-0.0574883
-0.0459846
-0.0333362
-0.0193661
-0.00249219
0.0283469
0.0596834
0.164709
-0.0885911
-0.0690118
-0.0578447
-0.0450333
-0.0314457
-0.0166517
0.00121134
0.0319761
0.0636336
0.161299
-0.0957482
-0.0711419
-0.0568278
-0.0425324
-0.0280912
-0.0122844
0.00715114
0.0379606
0.0734374
0.155557
-0.211212
-0.0895605
-0.061278
-0.0442689
-0.0283674
-0.0106587
0.0135694
0.0579537
0.131835
0.318331
-0.201248
-0.0809331
-0.0583905
-0.0446495
-0.0305839
-0.014446
0.00771752
0.0532311
0.134009
0.33851
-0.195752
-0.076649
-0.0565511
-0.0447417
-0.0319906
-0.0168989
0.00437392
0.0508511
0.135559
0.34781
-0.193014
-0.074462
-0.0554241
-0.0446585
-0.0327227
-0.0182365
0.00263644
0.0495484
0.135856
0.351377
-0.191906
-0.0735492
-0.0549086
-0.0445891
-0.033023
-0.0188094
0.00190076
0.0489642
0.135816
0.352476
-0.191906
-0.0735492
-0.0549087
-0.0445891
-0.0330231
-0.0188095
0.0019007
0.0489642
0.135816
0.352476
-0.193014
-0.074462
-0.0554242
-0.0446587
-0.0327229
-0.0182366
0.00263627
0.0495483
0.135855
0.351377
-0.195752
-0.076649
-0.0565513
-0.0447419
-0.0319908
-0.0168991
0.00437366
0.0508508
0.135559
0.34781
-0.201248
-0.0809332
-0.0583907
-0.0446497
-0.0305841
-0.0144462
0.00771723
0.0532308
0.134009
0.338509
-0.211212
-0.0895606
-0.0612782
-0.0442692
-0.0283676
-0.0106589
0.0135691
0.0579533
0.131835
0.31833
)
;

boundaryField
{
    top
    {
        type            zeroGradient;
    }
    others
    {
        type            zeroGradient;
    }
}


// ************************************************************************* //
