/*--------------------------------*- C++ -*----------------------------------*\
  =========                 |
  \\      /  F ield         | OpenFOAM: The Open Source CFD Toolbox
   \\    /   O peration     | Website:  https://openfoam.org
    \\  /    A nd           | Version:  9
     \\/     M anipulation  |
\*---------------------------------------------------------------------------*/
FoamFile
{
    format      ascii;
    class       volVectorField;
    location    "0.08";
    object      U;
}
// * * * * * * * * * * * * * * * * * * * * * * * * * * * * * * * * * * * * * //

dimensions      [0 1 -1 0 0 0 0];

internalField   nonuniform List<vector> 
1000
(
(-0.000810454 -0.000101706 0.000851831)
(-0.00358201 4.10867e-05 0.00143888)
(-0.00723332 7.23645e-05 0.00133569)
(-0.0101134 4.12345e-05 0.000978827)
(-0.011867 -2.61681e-05 0.000499548)
(-0.0122462 -0.000110734 -6.27396e-05)
(-0.0110778 -0.000197259 -0.000674308)
(-0.00833961 -0.000256774 -0.00124016)
(-0.00432854 -0.000231827 -0.00152135)
(-0.00103415 -2.87896e-05 -0.000947253)
(-0.00131337 -0.000233162 0.00127634)
(-0.00572377 -3.33015e-05 0.00232025)
(-0.0114423 2.98021e-05 0.00216235)
(-0.0158698 -8.55441e-07 0.00154628)
(-0.0184968 -9.19703e-05 0.000721997)
(-0.0189912 -0.000218571 -0.000238438)
(-0.0171286 -0.000349683 -0.0012651)
(-0.0128778 -0.000433846 -0.00219264)
(-0.00667145 -0.000382368 -0.00259151)
(-0.00158542 -5.96118e-05 -0.00148445)
(-0.00139163 -0.000238102 0.00129865)
(-0.00615701 -0.000164224 0.00245849)
(-0.0123721 -0.000108051 0.00230171)
(-0.0171631 -9.74825e-05 0.00163701)
(-0.0199965 -0.000125589 0.000743345)
(-0.0205191 -0.000181982 -0.000296289)
(-0.0184877 -0.000242587 -0.00140663)
(-0.0138676 -0.000273349 -0.00240619)
(-0.00711822 -0.000229469 -0.00281571)
(-0.00165387 -5.42325e-05 -0.0015647)
(-0.00137599 -0.000164273 0.00126019)
(-0.00618674 -0.000146086 0.0024347)
(-0.0125136 -0.000110074 0.00228646)
(-0.0173907 -9.23109e-05 0.0016261)
(-0.0202762 -9.49358e-05 0.000734199)
(-0.0208096 -0.000111953 -0.00030689)
(-0.0187414 -0.000131434 -0.00142211)
(-0.0140349 -0.000137074 -0.00242686)
(-0.00715671 -0.000111038 -0.00283241)
(-0.00163645 -3.50666e-05 -0.00155504)
(-0.00136195 -5.80315e-05 0.00123751)
(-0.00616975 -5.67465e-05 0.00241136)
(-0.0125186 -4.47923e-05 0.00226827)
(-0.0174158 -3.675e-05 0.00161417)
(-0.020316 -3.47126e-05 0.000728508)
(-0.0208548 -3.72927e-05 -0.000307252)
(-0.0187795 -4.09056e-05 -0.0014188)
(-0.0140532 -4.07956e-05 -0.00242115)
(-0.0071458 -3.24582e-05 -0.00282427)
(-0.00162284 -1.19233e-05 -0.00154441)
(-0.00136195 5.81289e-05 0.00123751)
(-0.00616975 5.67669e-05 0.00241136)
(-0.0125186 4.48092e-05 0.00226827)
(-0.0174158 3.67667e-05 0.00161417)
(-0.020316 3.47251e-05 0.000728507)
(-0.0208548 3.73016e-05 -0.000307251)
(-0.0187795 4.09132e-05 -0.0014188)
(-0.0140532 4.08043e-05 -0.00242114)
(-0.0071458 3.24701e-05 -0.00282427)
(-0.00162284 1.1931e-05 -0.00154441)
(-0.00137599 0.000164402 0.0012602)
(-0.00618675 0.000146112 0.00243471)
(-0.0125136 0.000110097 0.00228646)
(-0.0173907 9.23308e-05 0.0016261)
(-0.0202762 9.49502e-05 0.000734197)
(-0.0208096 0.000111964 -0.000306889)
(-0.0187414 0.000131443 -0.00142211)
(-0.0140349 0.000137083 -0.00242686)
(-0.00715671 0.000111049 -0.0028324)
(-0.00163645 3.5072e-05 -0.00155504)
(-0.00139162 0.000238212 0.00129867)
(-0.00615702 0.000164226 0.00245853)
(-0.0123721 0.000108067 0.00230172)
(-0.0171631 9.74997e-05 0.00163701)
(-0.0199965 0.000125604 0.000743344)
(-0.0205191 0.000181993 -0.000296287)
(-0.0184877 0.000242596 -0.00140662)
(-0.0138676 0.000273357 -0.00240618)
(-0.00711821 0.000229479 -0.0028157)
(-0.00165386 5.42364e-05 -0.0015647)
(-0.00131324 0.000233252 0.00127647)
(-0.00572371 3.32575e-05 0.00232037)
(-0.0114423 -2.97649e-05 0.00216239)
(-0.0158698 8.85229e-07 0.00154629)
(-0.0184968 9.19927e-05 0.000722001)
(-0.0189912 0.000218587 -0.000238432)
(-0.0171286 0.000349693 -0.00126509)
(-0.0128778 0.000433853 -0.00219263)
(-0.00667145 0.000382378 -0.0025915)
(-0.00158542 5.96177e-05 -0.00148445)
(-0.000810327 0.000101591 0.000851956)
(-0.00358209 -4.11959e-05 0.00143901)
(-0.00723342 -7.23607e-05 0.0013357)
(-0.0101135 -4.12242e-05 0.000978828)
(-0.0118671 2.61759e-05 0.000499551)
(-0.0122462 0.000110738 -6.27332e-05)
(-0.0110779 0.000197259 -0.000674297)
(-0.00833963 0.000256774 -0.00124014)
(-0.00432855 0.000231831 -0.00152133)
(-0.00103415 2.87962e-05 -0.000947249)
(-0.00154235 -0.000347989 0.00392972)
(-0.00621731 -0.000199383 0.00601374)
(-0.0120083 -0.000121431 0.0054778)
(-0.0165173 -9.52047e-05 0.00395822)
(-0.0192393 -0.000101327 0.00195704)
(-0.019829 -0.000131495 -0.000357016)
(-0.0180286 -0.000169561 -0.00282948)
(-0.0137689 -0.000187001 -0.00510777)
(-0.00744476 -0.00011579 -0.00631036)
(-0.00192527 0.000143571 -0.00430786)
(-0.00269935 -0.000651637 0.00590546)
(-0.0106055 -0.000445323 0.00960454)
(-0.020163 -0.000299857 0.00876859)
(-0.027465 -0.000233289 0.00618449)
(-0.0317437 -0.000225899 0.00279067)
(-0.0325164 -0.00026436 -0.00109984)
(-0.0294449 -0.00031772 -0.00519865)
(-0.0224567 -0.000333218 -0.00888908)
(-0.012173 -0.000205097 -0.0106002)
(-0.00316589 0.000204057 -0.00671315)
(-0.00292525 -0.00050873 0.00616604)
(-0.0115891 -0.000444314 0.0102684)
(-0.0220959 -0.000331144 0.009399)
(-0.0300815 -0.000254983 0.00658999)
(-0.0347341 -0.000222578 0.00288863)
(-0.0355417 -0.000226276 -0.00135234)
(-0.0321464 -0.000242595 -0.00581443)
(-0.0244734 -0.000233167 -0.00981249)
(-0.0131896 -0.000143492 -0.0115913)
(-0.00338844 7.48502e-05 -0.00718232)
(-0.00292361 -0.000305897 0.00610699)
(-0.0116966 -0.000303798 0.0102721)
(-0.0224034 -0.000236683 0.00942099)
(-0.0305393 -0.000181635 0.00660233)
(-0.0352811 -0.000150812 0.00287562)
(-0.0361053 -0.000140748 -0.00140379)
(-0.0326451 -0.000138823 -0.00591369)
(-0.0248218 -0.000124813 -0.00995463)
(-0.0133145 -7.68068e-05 -0.0117332)
(-0.00338698 1.61883e-05 -0.00722307)
(-0.00290458 -0.000101627 0.00605355)
(-0.0116766 -0.000106794 0.0102218)
(-0.0224187 -8.49563e-05 0.00938497)
(-0.0305863 -6.50933e-05 0.00658006)
(-0.0353511 -5.26346e-05 0.00286448)
(-0.0361842 -4.69053e-05 -0.00140792)
(-0.0327139 -4.40894e-05 -0.00591572)
(-0.0248604 -3.81258e-05 -0.00995728)
(-0.0133076 -2.34987e-05 -0.0117328)
(-0.00337068 1.15656e-06 -0.00721065)
(-0.00290458 0.00010165 0.00605355)
(-0.0116766 0.000106734 0.0102218)
(-0.0224187 8.49236e-05 0.00938497)
(-0.0305863 6.50826e-05 0.00658006)
(-0.0353511 5.26295e-05 0.00286448)
(-0.0361842 4.69021e-05 -0.00140792)
(-0.0327139 4.40889e-05 -0.00591572)
(-0.0248604 3.81307e-05 -0.00995728)
(-0.0133076 2.35126e-05 -0.0117328)
(-0.00337067 -1.14185e-06 -0.00721065)
(-0.0029236 0.000305928 0.00610699)
(-0.0116966 0.000303734 0.0102721)
(-0.0224034 0.00023665 0.00942099)
(-0.0305393 0.000181625 0.00660232)
(-0.0352811 0.000150808 0.00287561)
(-0.0361053 0.000140746 -0.00140379)
(-0.032645 0.000138823 -0.00591368)
(-0.0248218 0.000124819 -0.00995462)
(-0.0133145 7.68203e-05 -0.0117332)
(-0.00338697 -1.61762e-05 -0.00722307)
(-0.00292521 0.000508737 0.00616604)
(-0.0115891 0.000444226 0.0102684)
(-0.0220959 0.000331102 0.009399)
(-0.0300814 0.000254969 0.00658998)
(-0.0347341 0.000222572 0.00288863)
(-0.0355417 0.000226273 -0.00135234)
(-0.0321464 0.000242596 -0.00581443)
(-0.0244734 0.000233174 -0.00981248)
(-0.0131896 0.00014351 -0.0115913)
(-0.00338843 -7.48372e-05 -0.00718232)
(-0.00269924 0.000651573 0.00590554)
(-0.0106054 0.000445217 0.00960467)
(-0.020163 0.000299829 0.00876863)
(-0.0274649 0.000233288 0.0061845)
(-0.0317436 0.000225903 0.00279068)
(-0.0325163 0.000264363 -0.00109983)
(-0.0294449 0.000317725 -0.00519863)
(-0.0224567 0.000333228 -0.00888907)
(-0.012173 0.000205118 -0.0106002)
(-0.00316587 -0.000204041 -0.00671315)
(-0.00154221 0.000347857 0.00392967)
(-0.00621723 0.000199277 0.00601382)
(-0.0120083 0.000121399 0.00547779)
(-0.0165173 9.51972e-05 0.00395822)
(-0.0192393 0.000101324 0.00195704)
(-0.019829 0.000131493 -0.00035701)
(-0.0180287 0.000169561 -0.00282947)
(-0.0137689 0.000187005 -0.00510776)
(-0.00744476 0.000115804 -0.00631036)
(-0.00192525 -0.000143555 -0.00430786)
(-0.0020044 -0.000541798 0.00887472)
(-0.007893 -0.000382521 0.0129245)
(-0.0150194 -0.0002693 0.0116242)
(-0.0205175 -0.000203318 0.00835786)
(-0.0239074 -0.000171287 0.0041418)
(-0.0248323 -0.000171781 -0.000697374)
(-0.0229265 -0.000188399 -0.00589136)
(-0.0179155 -0.000189822 -0.0107796)
(-0.0100303 -8.89926e-05 -0.0135769)
(-0.00271453 0.000234157 -0.0098117)
(-0.00356326 -0.000999222 0.0132974)
(-0.0136653 -0.00078426 0.0204682)
(-0.025582 -0.000569874 0.0184329)
(-0.0345911 -0.00042473 0.0129294)
(-0.0399658 -0.000343426 0.00583665)
(-0.0412153 -0.000323631 -0.00223249)
(-0.0378497 -0.000335117 -0.0107807)
(-0.029494 -0.000319894 -0.0186449)
(-0.0165257 -0.000143309 -0.0226514)
(-0.00448159 0.000354588 -0.0152324)
(-0.00387362 -0.000757751 0.0140103)
(-0.0149739 -0.000704354 0.0219538)
(-0.0281112 -0.00053428 0.0198082)
(-0.0379895 -0.000390439 0.0138128)
(-0.0438466 -0.000295469 0.00606288)
(-0.0451637 -0.000249247 -0.00275467)
(-0.0414218 -0.000230394 -0.0120839)
(-0.0322185 -0.000196869 -0.0206253)
(-0.0179568 -8.03122e-05 -0.0248287)
(-0.00481741 0.000166763 -0.0163916)
(-0.00387339 -0.000443753 0.0139857)
(-0.0151125 -0.000455647 0.0220645)
(-0.0284995 -0.000353854 0.0199423)
(-0.0385653 -0.000255702 0.0139034)
(-0.044538 -0.000184917 0.00607282)
(-0.0458857 -0.000143033 -0.00285284)
(-0.0420755 -0.000119206 -0.0123094)
(-0.0326932 -9.15032e-05 -0.0209684)
(-0.0181487 -3.27405e-05 -0.0251979)
(-0.00483004 6.27034e-05 -0.0165643)
(-0.0038476 -0.000144908 0.0139152)
(-0.0150811 -0.000155529 0.0220077)
(-0.0285083 -0.000122168 0.0199101)
(-0.038612 -8.78227e-05 0.0138897)
(-0.0446146 -6.1931e-05 0.00606961)
(-0.0459774 -4.54393e-05 -0.00285484)
(-0.042161 -3.52551e-05 -0.0123202)
(-0.0327469 -2.49644e-05 -0.0209934)
(-0.0181481 -7.83557e-06 -0.0252279)
(-0.0048137 1.54007e-05 -0.0165713)
(-0.0038476 0.000144925 0.0139152)
(-0.0150811 0.000155489 0.0220077)
(-0.0285083 0.000122156 0.0199101)
(-0.038612 8.78281e-05 0.0138897)
(-0.0446146 6.19363e-05 0.00606961)
(-0.0459774 4.54418e-05 -0.00285484)
(-0.042161 3.52573e-05 -0.0123202)
(-0.0327469 2.49679e-05 -0.0209934)
(-0.0181481 7.84293e-06 -0.025228)
(-0.0048137 -1.53884e-05 -0.0165713)
(-0.00387338 0.000443774 0.0139857)
(-0.0151125 0.000455606 0.0220645)
(-0.0284995 0.000353842 0.0199423)
(-0.0385653 0.000255705 0.0139034)
(-0.044538 0.000184919 0.00607281)
(-0.0458857 0.000143032 -0.00285285)
(-0.0420755 0.000119206 -0.0123094)
(-0.0326932 9.15051e-05 -0.0209684)
(-0.0181487 3.27466e-05 -0.025198)
(-0.00483004 -6.26943e-05 -0.0165643)
(-0.00387361 0.000757765 0.0140103)
(-0.0149739 0.000704301 0.0219539)
(-0.0281112 0.00053426 0.0198082)
(-0.0379895 0.000390435 0.0138128)
(-0.0438466 0.000295464 0.00606287)
(-0.0451637 0.00024924 -0.00275468)
(-0.0414218 0.000230391 -0.0120839)
(-0.0322185 0.000196871 -0.0206253)
(-0.0179568 8.03217e-05 -0.0248287)
(-0.00481741 -0.000166755 -0.0163916)
(-0.00356322 0.000999245 0.0132974)
(-0.0136653 0.000784217 0.0204683)
(-0.025582 0.000569863 0.0184329)
(-0.034591 0.000424731 0.0129294)
(-0.0399658 0.000343423 0.00583664)
(-0.0412153 0.000323623 -0.0022325)
(-0.0378497 0.000335113 -0.0107807)
(-0.029494 0.000319897 -0.0186449)
(-0.0165257 0.00014332 -0.0226514)
(-0.00448158 -0.00035458 -0.0152325)
(-0.00200438 0.000541786 0.00887465)
(-0.00789301 0.000382481 0.0129245)
(-0.0150194 0.000269283 0.0116242)
(-0.0205175 0.000203311 0.00835785)
(-0.0239074 0.000171279 0.0041418)
(-0.0248323 0.000171771 -0.000697377)
(-0.0229265 0.000188393 -0.00589136)
(-0.0179155 0.000189822 -0.0107796)
(-0.0100303 8.89999e-05 -0.0135769)
(-0.00271453 -0.000234149 -0.00981169)
(-0.00268172 -0.000776999 0.0151469)
(-0.0101934 -0.000590427 0.021465)
(-0.018978 -0.000429882 0.0190942)
(-0.0256793 -0.000319809 0.0137428)
(-0.0299589 -0.000252816 0.0070203)
(-0.0315225 -0.000232513 -0.000674737)
(-0.0298386 -0.000243074 -0.00911143)
(-0.0241892 -0.000248591 -0.0174473)
(-0.0143537 -0.000124281 -0.0227881)
(-0.0041811 0.000283293 -0.0173142)
(-0.00474508 -0.00142853 0.0225164)
(-0.0176371 -0.00118045 0.0336939)
(-0.0323756 -0.000868911 0.0299943)
(-0.0433844 -0.000627017 0.0210316)
(-0.050178 -0.000466316 0.00976806)
(-0.052379 -0.000394285 -0.0030171)
(-0.0492586 -0.000384112 -0.0168628)
(-0.039764 -0.000370532 -0.0302311)
(-0.023558 -0.000162009 -0.0379522)
(-0.00683299 0.000442161 -0.0268272)
(-0.00514763 -0.00107665 0.0237338)
(-0.0192968 -0.00102309 0.0361154)
(-0.0355486 -0.000765591 0.0322146)
(-0.0476275 -0.000526327 0.0224679)
(-0.0550392 -0.000349803 0.0101738)
(-0.0573901 -0.000244787 -0.00378915)
(-0.0539055 -0.000196053 -0.0188999)
(-0.0434435 -0.000157822 -0.0334312)
(-0.0256268 -3.38077e-05 -0.0415938)
(-0.00736827 0.00023062 -0.0289142)
(-0.00514071 -0.000624312 0.0237383)
(-0.0194492 -0.000645391 0.0363429)
(-0.0360013 -0.000487636 0.0324824)
(-0.0483098 -0.000325143 0.0226688)
(-0.0558737 -0.000198014 0.0102478)
(-0.0582862 -0.000114275 -0.00388898)
(-0.0547523 -6.8277e-05 -0.0192142)
(-0.0440982 -3.67123e-05 -0.0339644)
(-0.0259402 1.86345e-05 -0.0422167)
(-0.00741833 0.000102087 -0.0292608)
(-0.0051031 -0.000202259 0.0236469)
(-0.0193946 -0.000217176 0.0362807)
(-0.0359896 -0.000164926 0.032463)
(-0.0483437 -0.000108347 0.0226805)
(-0.0559483 -6.27186e-05 0.0102756)
(-0.0583887 -3.13593e-05 -0.00386166)
(-0.0548607 -1.31188e-05 -0.0192068)
(-0.0441802 -1.39201e-06 -0.0339916)
(-0.0259614 1.29333e-05 -0.0422686)
(-0.0074091 2.90911e-05 -0.0292928)
(-0.0051031 0.000202273 0.0236469)
(-0.0193946 0.000217152 0.0362807)
(-0.0359896 0.000164924 0.032463)
(-0.0483437 0.000108356 0.0226805)
(-0.0559483 6.27229e-05 0.0102756)
(-0.0583887 3.13575e-05 -0.00386166)
(-0.0548607 1.31141e-05 -0.0192068)
(-0.0441802 1.38362e-06 -0.0339916)
(-0.0259615 -1.29442e-05 -0.0422686)
(-0.0074091 -2.90885e-05 -0.0292928)
(-0.00514071 0.000624327 0.0237383)
(-0.0194492 0.000645366 0.0363429)
(-0.0360013 0.000487632 0.0324824)
(-0.0483098 0.000325148 0.0226688)
(-0.0558737 0.000198014 0.0102477)
(-0.0582862 0.000114268 -0.00388899)
(-0.0547523 6.82701e-05 -0.0192142)
(-0.0440982 3.67029e-05 -0.0339644)
(-0.0259402 -1.86456e-05 -0.0422167)
(-0.00741833 -0.000102087 -0.0292608)
(-0.00514763 0.00107666 0.0237338)
(-0.0192968 0.00102307 0.0361155)
(-0.0355486 0.000765582 0.0322146)
(-0.0476275 0.000526324 0.0224679)
(-0.0550393 0.000349792 0.0101738)
(-0.0573901 0.000244771 -0.00378916)
(-0.0539055 0.000196041 -0.0188999)
(-0.0434435 0.000157813 -0.0334312)
(-0.0256268 3.38012e-05 -0.0415938)
(-0.00736827 -0.00023062 -0.0289142)
(-0.00474507 0.00142855 0.0225163)
(-0.0176371 0.00118043 0.0336939)
(-0.0323756 0.00086891 0.0299943)
(-0.0433844 0.000627016 0.0210316)
(-0.050178 0.000466302 0.00976804)
(-0.052379 0.000394263 -0.00301712)
(-0.0492586 0.000384096 -0.0168628)
(-0.0397641 0.000370523 -0.0302312)
(-0.023558 0.000162003 -0.0379522)
(-0.006833 -0.000442165 -0.0268272)
(-0.00268171 0.000776998 0.0151468)
(-0.0101934 0.000590413 0.021465)
(-0.018978 0.000429876 0.0190942)
(-0.0256793 0.000319804 0.0137428)
(-0.0299589 0.000252803 0.00702029)
(-0.0315225 0.000232495 -0.000674754)
(-0.0298386 0.00024306 -0.00911145)
(-0.0241892 0.000248584 -0.0174473)
(-0.0143537 0.000124278 -0.0227881)
(-0.0041811 -0.000283297 -0.0173142)
(-0.00392272 -0.00112771 0.0236671)
(-0.0139666 -0.000882834 0.0324794)
(-0.0249539 -0.000629358 0.0284414)
(-0.0331517 -0.000436847 0.0205056)
(-0.0386118 -0.000308668 0.0109504)
(-0.0412496 -0.000249707 5.98624e-05)
(-0.0403679 -0.000256331 -0.0122452)
(-0.0344922 -0.000288473 -0.0253434)
(-0.0223669 -0.000165827 -0.0351119)
(-0.00723249 0.000274913 -0.0287211)
(-0.00681207 -0.00205399 0.034796)
(-0.023948 -0.00172219 0.0504783)
(-0.0424332 -0.00122606 0.0442498)
(-0.0559299 -0.000809475 0.0310632)
(-0.0645985 -0.000511879 0.0151154)
(-0.0684296 -0.000347816 -0.00292701)
(-0.0664579 -0.000311628 -0.0231132)
(-0.0564592 -0.000336904 -0.0441106)
(-0.0364985 -0.000153536 -0.0584611)
(-0.011693 0.000441757 -0.0445537)
(-0.00735343 -0.00152453 0.0366062)
(-0.0261003 -0.00144259 0.0540076)
(-0.0464813 -0.00102518 0.0474761)
(-0.0613036 -0.000620926 0.0331952)
(-0.0707766 -0.000308329 0.0158332)
(-0.0749115 -0.000107491 -0.00383971)
(-0.0726832 -1.82197e-05 -0.0258657)
(-0.0616717 -1.90812e-06 -0.0487122)
(-0.0397737 7.2076e-05 -0.064021)
(-0.0126713 0.000256047 -0.0480997)
(-0.00733195 -0.000871106 0.036633)
(-0.0262544 -0.000888779 0.0543704)
(-0.0469978 -0.000631362 0.0479216)
(-0.0621076 -0.000360763 0.0335734)
(-0.0717888 -0.000142494 0.0160568)
(-0.0760423 6.34927e-06 -0.003846)
(-0.0738194 8.20833e-05 -0.0261763)
(-0.0626382 0.000102066 -0.0493848)
(-0.0403561 0.00011751 -0.0649247)
(-0.0128276 0.000132004 -0.0487219)
(-0.00727456 -0.000279592 0.0365139)
(-0.0261577 -0.00029538 0.0543041)
(-0.0469451 -0.000210012 0.0479312)
(-0.0621127 -0.000116583 0.0336404)
(-0.0718534 -3.95216e-05 0.016157)
(-0.0761582 1.44171e-05 -0.00374109)
(-0.0739673 4.3136e-05 -0.0260966)
(-0.0627784 5.13931e-05 -0.0493695)
(-0.0404401 5.185e-05 -0.064979)
(-0.0128478 4.21045e-05 -0.0487948)
(-0.00727456 0.0002796 0.0365139)
(-0.0261577 0.000295365 0.0543041)
(-0.0469451 0.000210013 0.0479312)
(-0.0621127 0.000116589 0.0336404)
(-0.0718534 3.95209e-05 0.016157)
(-0.0761582 -1.44235e-05 -0.00374109)
(-0.0739673 -4.31422e-05 -0.0260966)
(-0.0627784 -5.14022e-05 -0.0493695)
(-0.0404401 -5.18607e-05 -0.064979)
(-0.0128478 -4.21006e-05 -0.0487948)
(-0.00733196 0.000871115 0.036633)
(-0.0262544 0.000888764 0.0543704)
(-0.0469978 0.000631362 0.0479216)
(-0.0621076 0.000360765 0.0335734)
(-0.0717888 0.000142489 0.0160568)
(-0.0760423 -6.35789e-06 -0.00384601)
(-0.0738194 -8.20889e-05 -0.0261763)
(-0.0626382 -0.000102075 -0.0493848)
(-0.0403561 -0.00011752 -0.0649247)
(-0.0128276 -0.000132002 -0.0487219)
(-0.00735343 0.00152454 0.0366062)
(-0.0261003 0.00144258 0.0540076)
(-0.0464813 0.00102518 0.0474761)
(-0.0613036 0.000620924 0.0331952)
(-0.0707767 0.000308316 0.0158332)
(-0.0749115 0.000107475 -0.00383971)
(-0.0726832 1.82144e-05 -0.0258657)
(-0.0616717 1.90612e-06 -0.0487121)
(-0.0397737 -7.20757e-05 -0.064021)
(-0.0126713 -0.000256039 -0.0480997)
(-0.00681206 0.00205401 0.034796)
(-0.023948 0.00172219 0.0504783)
(-0.0424332 0.00122607 0.0442499)
(-0.0559299 0.000809475 0.0310632)
(-0.0645985 0.000511862 0.0151154)
(-0.0684296 0.000347795 -0.00292702)
(-0.0664578 0.000311624 -0.0231132)
(-0.0564592 0.000336911 -0.0441106)
(-0.0364985 0.000153546 -0.0584611)
(-0.011693 -0.000441747 -0.0445537)
(-0.00392271 0.00112772 0.0236671)
(-0.0139666 0.000882837 0.0324794)
(-0.0249539 0.000629362 0.0284414)
(-0.0331517 0.000436846 0.0205056)
(-0.0386118 0.000308656 0.0109504)
(-0.0412496 0.000249691 5.98467e-05)
(-0.040368 0.000256326 -0.0122453)
(-0.0344922 0.000288479 -0.0253434)
(-0.0223668 0.000165836 -0.0351119)
(-0.00723247 -0.000274907 -0.0287211)
(-0.00630242 -0.00167468 0.0361023)
(-0.0202699 -0.00129333 0.0470326)
(-0.0337263 -0.000827452 0.0400706)
(-0.0433294 -0.000454517 0.028803)
(-0.0500302 -0.000192087 0.01616)
(-0.0542277 -2.51583e-05 0.00199978)
(-0.0552405 4.60474e-06 -0.0146562)
(-0.0505359 -7.9216e-05 -0.0342034)
(-0.0368348 -5.73859e-05 -0.0516442)
(-0.0133931 0.000128492 -0.0475921)
(-0.0105855 -0.00299743 0.0523101)
(-0.034129 -0.00245598 0.0723228)
(-0.0569398 -0.00156502 0.0618492)
(-0.0728284 -0.000792033 0.0433826)
(-0.0834212 -0.00021641 0.0223921)
(-0.0895772 0.00016616 -0.00106422)
(-0.0903665 0.000291154 -0.0283365)
(-0.0819075 0.000188839 -0.059684)
(-0.0593227 0.000158881 -0.0858574)
(-0.0212179 0.000228689 -0.0740343)
(-0.0113379 -0.00216219 0.0548523)
(-0.0369602 -0.00198215 0.0772012)
(-0.0621327 -0.00125495 0.0663208)
(-0.0796243 -0.00054753 0.0464536)
(-0.0912221 1.05352e-05 0.0236847)
(-0.0978993 0.000392558 -0.00184624)
(-0.0986743 0.000569636 -0.0315544)
(-0.0893249 0.000532045 -0.0656935)
(-0.0646252 0.000410755 -0.0938502)
(-0.0230134 0.000187876 -0.0800494)
(-0.011287 -0.00120727 0.0548963)
(-0.0370834 -0.00119118 0.07773)
(-0.0626873 -0.00075311 0.0670171)
(-0.0805404 -0.000296795 0.047118)
(-0.0924233 7.4411e-05 0.0241992)
(-0.0993017 0.000331928 -0.00158327)
(-0.100188 0.00046816 -0.0316747)
(-0.0907651 0.000457086 -0.0663683)
(-0.0657186 0.000352072 -0.0950317)
(-0.0234058 0.000134861 -0.0811488)
(-0.0111968 -0.000382518 0.0547417)
(-0.0369125 -0.000390968 0.0776625)
(-0.0625568 -0.000247622 0.0670796)
(-0.0804867 -9.3005e-05 0.0472827)
(-0.0924594 3.50621e-05 0.0244306)
(-0.0994235 0.000124911 -0.00132316)
(-0.100389 0.000174138 -0.0314403)
(-0.0910125 0.000172085 -0.0662378)
(-0.0659461 0.000132576 -0.0950538)
(-0.0235017 5.04462e-05 -0.0813006)
(-0.0111968 0.000382521 0.0547417)
(-0.0369125 0.000390961 0.0776625)
(-0.0625568 0.000247624 0.0670796)
(-0.0804867 9.30088e-05 0.0472827)
(-0.0924594 -3.50651e-05 0.0244306)
(-0.0994235 -0.000124914 -0.00132316)
(-0.100389 -0.00017413 -0.0314403)
(-0.0910125 -0.000172074 -0.0662378)
(-0.0659461 -0.000132569 -0.0950538)
(-0.0235017 -5.04358e-05 -0.0813006)
(-0.011287 0.00120727 0.0548963)
(-0.0370834 0.00119117 0.07773)
(-0.0626873 0.000753111 0.0670171)
(-0.0805404 0.000296796 0.047118)
(-0.0924233 -7.4416e-05 0.0241992)
(-0.0993017 -0.000331932 -0.00158326)
(-0.100188 -0.000468152 -0.0316747)
(-0.0907651 -0.000457079 -0.0663683)
(-0.0657186 -0.000352068 -0.0950317)
(-0.0234058 -0.000134853 -0.0811488)
(-0.0113379 0.0021622 0.0548523)
(-0.0369602 0.00198215 0.0772013)
(-0.0621327 0.00125495 0.0663208)
(-0.0796243 0.000547526 0.0464536)
(-0.0912221 -1.0545e-05 0.0236847)
(-0.0978993 -0.000392564 -0.00184624)
(-0.0986743 -0.000569625 -0.0315544)
(-0.0893249 -0.000532031 -0.0656935)
(-0.0646252 -0.000410736 -0.0938502)
(-0.0230134 -0.00018786 -0.0800494)
(-0.0105855 0.00299745 0.0523101)
(-0.034129 0.002456 0.0723228)
(-0.0569398 0.00156503 0.0618492)
(-0.0728284 0.000792026 0.0433825)
(-0.0834212 0.000216393 0.0223921)
(-0.0895772 -0.00016617 -0.00106423)
(-0.0903665 -0.000291134 -0.0283365)
(-0.0819074 -0.000188806 -0.059684)
(-0.0593227 -0.000158852 -0.0858574)
(-0.0212179 -0.00022868 -0.0740343)
(-0.00630241 0.00167469 0.0361022)
(-0.0202699 0.00129334 0.0470326)
(-0.0337263 0.000827458 0.0400706)
(-0.0433294 0.000454511 0.028803)
(-0.0500303 0.000192074 0.01616)
(-0.0542277 2.51491e-05 0.00199976)
(-0.0552405 -4.59063e-06 -0.0146562)
(-0.0505358 7.92446e-05 -0.0342033)
(-0.0368348 5.74075e-05 -0.0516442)
(-0.0133931 -0.000128488 -0.0475921)
(-0.0111026 -0.00251928 0.0558239)
(-0.0309558 -0.00181456 0.0660419)
(-0.0455811 -0.000851434 0.0535699)
(-0.0550683 -9.52082e-05 0.0378893)
(-0.0620399 0.000433146 0.0221617)
(-0.0678011 0.000815012 0.00533824)
(-0.0720752 0.0010944 -0.0152541)
(-0.0711519 0.00106768 -0.0426945)
(-0.0595588 0.000843661 -0.0724477)
(-0.0239888 -5.31193e-05 -0.080342)
(-0.017776 -0.00441059 0.0793869)
(-0.0505708 -0.00337196 0.100667)
(-0.075963 -0.00161752 0.0824566)
(-0.091798 -0.000136885 0.0572774)
(-0.102527 0.000953571 0.0313854)
(-0.110459 0.00175479 0.00356943)
(-0.115371 0.0023173 -0.0301153)
(-0.111677 0.00228567 -0.0742667)
(-0.0917067 0.00176823 -0.119805)
(-0.0354347 -0.00010045 -0.125425)
(-0.0188442 -0.00306227 0.0829332)
(-0.0542582 -0.00263922 0.107248)
(-0.082417 -0.00131734 0.088476)
(-0.0999657 -7.46795e-05 0.0616082)
(-0.111709 0.000896357 0.0336657)
(-0.120176 0.00160901 0.00349387)
(-0.125234 0.00204628 -0.0331086)
(-0.120829 0.00198113 -0.0812301)
(-0.0989271 0.00144089 -0.130449)
(-0.0378769 2.92312e-05 -0.135807)
(-0.0187387 -0.00165799 0.0830083)
(-0.054275 -0.00155225 0.107991)
(-0.0829144 -0.000799271 0.0895094)
(-0.100891 -3.97059e-05 0.0626739)
(-0.112975 0.000578376 0.0346199)
(-0.121711 0.00103503 0.0042206)
(-0.127012 0.00129033 -0.0328009)
(-0.122693 0.00124316 -0.0817226)
(-0.100642 0.000890221 -0.131896)
(-0.0385695 9.09789e-05 -0.137845)
(-0.0185969 -0.000516768 0.082813)
(-0.0539793 -0.000504083 0.107925)
(-0.0826455 -0.000264792 0.0896446)
(-0.100725 -1.41508e-05 0.0629674)
(-0.112933 0.000194283 0.0350229)
(-0.121806 0.00034844 0.00468701)
(-0.127264 0.000430767 -0.0323488)
(-0.12308 0.000413713 -0.0814274)
(-0.101107 0.000295356 -0.131884)
(-0.0388009 4.58585e-05 -0.138196)
(-0.0185969 0.000516767 0.082813)
(-0.0539793 0.000504078 0.107925)
(-0.0826455 0.000264787 0.0896446)
(-0.100725 1.41438e-05 0.0629673)
(-0.112933 -0.000194294 0.0350229)
(-0.121806 -0.000348441 0.00468701)
(-0.127264 -0.000430748 -0.0323488)
(-0.12308 -0.000413703 -0.0814274)
(-0.101107 -0.000295369 -0.131884)
(-0.0388009 -4.58545e-05 -0.138196)
(-0.0187387 0.00165799 0.0830083)
(-0.054275 0.00155224 0.107991)
(-0.0829144 0.000799263 0.0895094)
(-0.100891 3.96965e-05 0.0626739)
(-0.112975 -0.000578387 0.0346199)
(-0.121711 -0.00103503 0.00422061)
(-0.127012 -0.00129031 -0.0328009)
(-0.122693 -0.00124315 -0.0817226)
(-0.100642 -0.000890235 -0.131896)
(-0.0385695 -9.09745e-05 -0.137845)
(-0.0188442 0.00306227 0.0829332)
(-0.0542582 0.00263921 0.107248)
(-0.082417 0.00131733 0.088476)
(-0.0999657 7.46635e-05 0.0616082)
(-0.111709 -0.000896371 0.0336657)
(-0.120176 -0.00160901 0.00349389)
(-0.125234 -0.00204627 -0.0331086)
(-0.120829 -0.00198113 -0.0812301)
(-0.0989271 -0.00144089 -0.130449)
(-0.0378769 -2.92334e-05 -0.135807)
(-0.017776 0.0044106 0.0793869)
(-0.0505708 0.00337197 0.100667)
(-0.075963 0.00161751 0.0824566)
(-0.091798 0.000136861 0.0572774)
(-0.102527 -0.000953593 0.0313854)
(-0.110459 -0.00175479 0.00356945)
(-0.115371 -0.00231727 -0.0301153)
(-0.111677 -0.00228565 -0.0742667)
(-0.0917067 -0.00176824 -0.119805)
(-0.0354347 0.000100428 -0.125425)
(-0.0111026 0.00251929 0.0558239)
(-0.0309558 0.00181457 0.0660419)
(-0.0455811 0.000851424 0.0535699)
(-0.0550683 9.51861e-05 0.0378892)
(-0.06204 -0.000433167 0.0221616)
(-0.0678012 -0.000815017 0.00533824)
(-0.0720752 -0.00109437 -0.0152541)
(-0.0711519 -0.00106765 -0.0426945)
(-0.0595589 -0.000843671 -0.0724477)
(-0.0239888 5.30907e-05 -0.0803419)
(-0.0208157 -0.00358514 0.0841852)
(-0.047317 -0.00220925 0.08641)
(-0.054929 -0.000308053 0.0652688)
(-0.0584802 0.00106182 0.0445019)
(-0.0618008 0.00196942 0.0266139)
(-0.066778 0.00279494 0.0090219)
(-0.0742248 0.00373797 -0.0137975)
(-0.0795694 0.00409685 -0.0507938)
(-0.0802053 0.00380142 -0.0994636)
(-0.0328917 -0.000457232 -0.140511)
(-0.031794 -0.00615682 0.115865)
(-0.0747513 -0.00413183 0.131181)
(-0.0900679 -0.00084139 0.101277)
(-0.0957735 0.00173787 0.0685779)
(-0.0991377 0.00356916 0.0394166)
(-0.1035 0.00517707 0.0104232)
(-0.110308 0.006806 -0.0269749)
(-0.11224 0.00728269 -0.0863858)
(-0.108997 0.00640882 -0.160799)
(-0.0395753 -0.00107276 -0.215206)
(-0.033425 -0.00418805 0.120183)
(-0.0794608 -0.00332268 0.139604)
(-0.0970203 -0.00104409 0.108979)
(-0.103558 0.000984018 0.0743141)
(-0.106999 0.00254417 0.0429856)
(-0.111 0.00381196 0.0116325)
(-0.117368 0.00481816 -0.0289566)
(-0.118008 0.00486988 -0.0938318)
(-0.114164 0.00381176 -0.174074)
(-0.0404981 -0.000606176 -0.232476)
(-0.0332487 -0.00222139 0.120215)
(-0.0792569 -0.0019664 0.140547)
(-0.0971953 -0.000747578 0.110379)
(-0.104094 0.000428105 0.0757811)
(-0.10778 0.00138157 0.044369)
(-0.111942 0.00212936 0.0128152)
(-0.118546 0.00262898 -0.0281973)
(-0.119324 0.00257933 -0.0943106)
(-0.115917 0.00186754 -0.176152)
(-0.0412566 -0.000183798 -0.236329)
(-0.0330338 -0.000683482 0.119966)
(-0.0787707 -0.000638524 0.140461)
(-0.0967018 -0.000265236 0.110579)
(-0.103727 0.000112501 0.0761767)
(-0.107567 0.000427112 0.0448965)
(-0.111896 0.000670133 0.0134209)
(-0.118724 0.000818261 -0.0275902)
(-0.11974 0.00079202 -0.0940019)
(-0.116624 0.000555615 -0.176342)
(-0.041651 -2.10328e-05 -0.237173)
(-0.0330338 0.000683472 0.119966)
(-0.0787707 0.000638511 0.140461)
(-0.0967018 0.000265216 0.110579)
(-0.103727 -0.000112522 0.0761767)
(-0.107567 -0.000427126 0.0448965)
(-0.111896 -0.000670119 0.0134209)
(-0.118724 -0.000818241 -0.0275902)
(-0.11974 -0.000792031 -0.0940019)
(-0.116624 -0.000555627 -0.176342)
(-0.041651 2.10359e-05 -0.237173)
(-0.0332487 0.00222138 0.120215)
(-0.0792569 0.00196639 0.140547)
(-0.0971953 0.000747558 0.110379)
(-0.104094 -0.000428124 0.075781)
(-0.10778 -0.00138158 0.044369)
(-0.111942 -0.00212935 0.0128152)
(-0.118546 -0.00262896 -0.0281973)
(-0.119324 -0.00257935 -0.0943106)
(-0.115917 -0.00186755 -0.176152)
(-0.0412566 0.000183801 -0.236329)
(-0.033425 0.00418804 0.120183)
(-0.0794608 0.00332267 0.139604)
(-0.0970203 0.00104407 0.108979)
(-0.103558 -0.000984033 0.0743141)
(-0.106999 -0.00254417 0.0429856)
(-0.111 -0.00381194 0.0116326)
(-0.117368 -0.00481814 -0.0289566)
(-0.118008 -0.0048699 -0.0938318)
(-0.114164 -0.00381178 -0.174074)
(-0.0404981 0.000606159 -0.232476)
(-0.0317941 0.00615683 0.115865)
(-0.0747513 0.00413183 0.131181)
(-0.0900679 0.000841376 0.101277)
(-0.0957735 -0.00173788 0.0685779)
(-0.0991376 -0.00356916 0.0394166)
(-0.1035 -0.00517705 0.0104232)
(-0.110308 -0.00680597 -0.0269749)
(-0.11224 -0.0072827 -0.0863859)
(-0.108997 -0.00640887 -0.160799)
(-0.0395753 0.00107274 -0.215206)
(-0.0208157 0.00358515 0.0841852)
(-0.047317 0.00220925 0.0864099)
(-0.054929 0.000308044 0.0652688)
(-0.0584802 -0.00106184 0.0445019)
(-0.0618008 -0.00196942 0.0266139)
(-0.066778 -0.00279492 0.00902193)
(-0.0742249 -0.00373794 -0.0137976)
(-0.0795695 -0.00409684 -0.0507939)
(-0.0802053 -0.00380145 -0.0994636)
(-0.0328917 0.000457208 -0.140511)
(-0.027155 -0.00605703 0.15727)
(-0.039404 -0.00303809 0.100127)
(-0.0144699 0.000521213 0.0604898)
(0.000528018 0.00261189 0.0375164)
(0.00867845 0.00385693 0.0213393)
(0.00966312 0.0051185 0.00638342)
(0.000742281 0.00679165 -0.0152269)
(-0.0114282 0.00712725 -0.0584116)
(-0.0476963 0.0071447 -0.133229)
(-0.00552546 -0.00474372 -0.217877)
(-0.0451932 -0.00990043 0.211799)
(-0.0629585 -0.00556644 0.150029)
(-0.0277312 0.000153776 0.0954386)
(-0.0019611 0.00396209 0.0604403)
(0.0160502 0.00646773 0.0344395)
(0.0250364 0.00881766 0.0104243)
(0.0207842 0.0116081 -0.0229008)
(0.0163911 0.0119248 -0.0881871)
(-0.0308242 0.0113636 -0.198218)