/*--------------------------------*- C++ -*----------------------------------*\
  =========                 |
  \\      /  F ield         | OpenFOAM: The Open Source CFD Toolbox
   \\    /   O peration     | Website:  https://openfoam.org
    \\  /    A nd           | Version:  9
     \\/     M anipulation  |
\*---------------------------------------------------------------------------*/
FoamFile
{
    format      ascii;
    class       volVectorField;
    location    "0.25";
    object      U;
}
// * * * * * * * * * * * * * * * * * * * * * * * * * * * * * * * * * * * * * //

dimensions      [0 1 -1 0 0 0 0];

internalField   nonuniform List<vector> 
1000
(
(-0.000172001 -0.000306864 0.000392781)
(-0.001925 -0.000178575 0.00104086)
(-0.00515771 -0.000113368 0.00123198)
(-0.00824572 -0.000177137 0.00118033)
(-0.0106153 -0.000364298 0.000963938)
(-0.0116389 -0.000641928 0.000563135)
(-0.0107125 -0.000928402 -1.58863e-05)
(-0.00762522 -0.00107376 -0.000611181)
(-0.00299041 -0.000891304 -0.000777694)
(-0.000210785 -0.000235448 -0.000104893)
(-0.000460363 -0.000920994 0.000634813)
(-0.0039555 -0.000864983 0.00202384)
(-0.0101315 -0.000777595 0.00242039)
(-0.0159141 -0.000908648 0.00219954)
(-0.0201903 -0.00129192 0.00155235)
(-0.0218743 -0.00187001 0.000484667)
(-0.019965 -0.00245674 -0.000922548)
(-0.0141473 -0.00270783 -0.00217426)
(-0.00563634 -0.00224165 -0.0022696)
(-0.000484261 -0.000764462 -0.00042322)
(-0.000579378 -0.00120402 0.00049247)
(-0.0049145 -0.00143596 0.00215842)
(-0.0125288 -0.00141633 0.00264482)
(-0.019595 -0.00152332 0.00233183)
(-0.0247537 -0.00184848 0.0014531)
(-0.0266958 -0.00235407 3.46335e-05)
(-0.0242067 -0.0028495 -0.00180224)
(-0.0169373 -0.00300763 -0.00333888)
(-0.00646687 -0.00249603 -0.00325048)
(-0.00038052 -0.0010431 -0.000622223)
(-0.000596927 -0.000933985 0.000306888)
(-0.00528115 -0.00120845 0.00203198)
(-0.0135604 -0.00121887 0.00255443)
(-0.0212265 -0.00127599 0.00221788)
(-0.0267989 -0.00146483 0.00125837)
(-0.0288429 -0.00176549 -0.000299438)
(-0.0260353 -0.00205002 -0.00231124)
(-0.018028 -0.00211844 -0.00395032)
(-0.00660097 -0.00177033 -0.00372873)
(-0.000200167 -0.00081486 -0.000691898)
(-0.000589279 -0.000344877 0.000201811)
(-0.00538767 -0.000460818 0.00192797)
(-0.0139148 -0.000468491 0.00246477)
(-0.0218112 -0.000484505 0.00212989)
(-0.0275455 -0.000542478 0.00115392)
(-0.0296289 -0.000636835 -0.000444292)
(-0.0266893 -0.000726544 -0.00250815)
(-0.0183807 -0.000744315 -0.0041767)
(-0.00657556 -0.000625647 -0.00389831)
(-9.16141e-05 -0.000301616 -0.000708005)
(-0.000589279 0.000344915 0.000201811)
(-0.00538768 0.000460843 0.00192797)
(-0.0139148 0.00046851 0.00246477)
(-0.0218112 0.000484519 0.00212989)
(-0.0275455 0.000542487 0.00115392)
(-0.0296289 0.000636841 -0.000444292)
(-0.0266893 0.000726547 -0.00250815)
(-0.0183807 0.000744316 -0.0041767)
(-0.00657556 0.000625644 -0.00389831)
(-9.16143e-05 0.00030161 -0.000708005)
(-0.000596926 0.000934026 0.00030689)
(-0.00528115 0.00120848 0.00203199)
(-0.0135604 0.00121889 0.00255443)
(-0.0212265 0.00127601 0.00221788)
(-0.0267989 0.00146484 0.00125837)
(-0.0288429 0.00176549 -0.00029944)
(-0.0260353 0.00205002 -0.00231124)
(-0.018028 0.00211844 -0.00395032)
(-0.00660097 0.00177033 -0.00372874)
(-0.000200167 0.000814854 -0.000691898)
(-0.000579374 0.00120406 0.000492477)
(-0.0049145 0.00143597 0.00215843)
(-0.0125288 0.00141634 0.00264483)
(-0.019595 0.00152333 0.00233184)
(-0.0247537 0.00184849 0.00145309)
(-0.0266958 0.00235408 3.46301e-05)
(-0.0242067 0.00284951 -0.00180224)
(-0.0169373 0.00300763 -0.00333889)
(-0.00646687 0.00249603 -0.00325048)
(-0.00038052 0.00104309 -0.000622224)
(-0.000460335 0.000921006 0.000634844)
(-0.00395549 0.000864971 0.00202387)
(-0.0101316 0.000777603 0.0024204)
(-0.0159141 0.000908657 0.00219954)
(-0.0201903 0.00129193 0.00155235)
(-0.0218743 0.00187002 0.000484664)
(-0.019965 0.00245674 -0.000922552)
(-0.0141473 0.00270783 -0.00217426)
(-0.00563634 0.00224166 -0.00226961)
(-0.000484259 0.000764461 -0.000423221)
(-0.000171972 0.000306833 0.000392811)
(-0.00192502 0.000178545 0.00104089)
(-0.00515774 0.000113365 0.00123198)
(-0.00824576 0.000177139 0.00118033)
(-0.0106153 0.000364301 0.000963937)
(-0.0116389 0.000641931 0.000563135)
(-0.0107125 0.000928405 -1.58866e-05)
(-0.00762523 0.00107377 -0.000611181)
(-0.00299042 0.000891307 -0.000777695)
(-0.000210785 0.000235449 -0.000104892)
(-0.000775857 -0.000898 0.00300763)
(-0.00448062 -0.000944571 0.00576296)
(-0.0103895 -0.000871685 0.00637171)
(-0.0159058 -0.000863291 0.00583106)
(-0.0200842 -0.000961901 0.0044699)
(-0.021926 -0.00116575 0.00227992)
(-0.0204466 -0.00140441 -0.000612406)
(-0.0151332 -0.00145915 -0.00346296)
(-0.00679115 -0.00106844 -0.00453264)
(-0.00102798 -7.53645e-06 -0.00195923)
(-0.00203369 -0.00227681 0.00490872)
(-0.0103106 -0.00268804 0.0106139)
(-0.0228121 -0.00258669 0.0118391)
(-0.0341797 -0.00256561 0.0103134)
(-0.0423899 -0.00278578 0.00682722)
(-0.0455907 -0.00324093 0.00155747)
(-0.042054 -0.00375324 -0.00494666)
(-0.0310182 -0.00381644 -0.0106828)
(-0.0142996 -0.00288293 -0.011708)
(-0.00244135 -0.000523199 -0.00447602)
(-0.0026651 -0.00257655 0.00498718)
(-0.0133505 -0.00339148 0.011769)
(-0.0293109 -0.00336976 0.0132064)
(-0.0436122 -0.0033276 0.0111039)
(-0.053716 -0.0035167 0.00642568)
(-0.057402 -0.00393987 -0.000528007)
(-0.0526012 -0.00438667 -0.00893516)
(-0.0384755 -0.00437841 -0.0159531)
(-0.0174683 -0.0034171 -0.0163595)
(-0.00284629 -0.00111347 -0.00594691)
(-0.00288508 -0.00185974 0.00464265)
(-0.0146202 -0.0025913 0.0116826)
(-0.0321867 -0.00261048 0.0131858)
(-0.0478358 -0.00256273 0.0108537)
(-0.0587934 -0.00266083 0.00567389)
(-0.0626512 -0.00291587 -0.00202023)
(-0.0571824 -0.00316443 -0.0112486)
(-0.041544 -0.00312514 -0.0187674)
(-0.0185072 -0.00248787 -0.0187102)
(-0.00281684 -0.000968305 -0.00661708)
(-0.00293299 -0.00066455 0.00440015)
(-0.0150215 -0.000949613 0.0114648)
(-0.0331823 -0.00096218 0.0129931)
(-0.0493365 -0.000940793 0.0106049)
(-0.0606178 -0.000966739 0.00527572)
(-0.0645351 -0.0010462 -0.00265923)
(-0.0587983 -0.00112157 -0.0121607)
(-0.0425705 -0.00110293 -0.0198417)
(-0.018762 -0.000888492 -0.0195875)
(-0.0027386 -0.000373562 -0.0068508)
(-0.00293299 0.000664577 0.00440015)
(-0.0150215 0.00094962 0.0114648)
(-0.0331823 0.000962183 0.0129931)
(-0.0493365 0.0009408 0.0106049)
(-0.0606178 0.000966749 0.00527572)
(-0.0645351 0.00104621 -0.00265923)
(-0.0587983 0.00112158 -0.0121607)
(-0.0425705 0.00110294 -0.0198417)
(-0.018762 0.000888497 -0.0195875)
(-0.0027386 0.000373561 -0.00685079)
(-0.00288507 0.00185977 0.00464265)
(-0.0146202 0.0025913 0.0116826)
(-0.0321867 0.00261048 0.0131859)
(-0.0478358 0.00256274 0.0108537)
(-0.0587934 0.00266084 0.00567388)
(-0.0626512 0.00291588 -0.00202023)
(-0.0571824 0.00316444 -0.0112486)
(-0.041544 0.00312515 -0.0187674)
(-0.0185072 0.00248788 -0.0187102)
(-0.00281684 0.000968304 -0.00661707)
(-0.00266508 0.00257657 0.00498718)
(-0.0133505 0.00339147 0.0117691)
(-0.0293109 0.00336976 0.0132064)
(-0.0436122 0.00332761 0.0111039)
(-0.053716 0.00351671 0.00642567)
(-0.057402 0.00393988 -0.000528014)
(-0.0526012 0.00438668 -0.00893517)
(-0.0384755 0.00437842 -0.0159531)
(-0.0174683 0.00341711 -0.0163595)
(-0.0028463 0.00111347 -0.0059469)
(-0.00203366 0.0022768 0.00490874)
(-0.0103106 0.00268801 0.0106139)
(-0.0228121 0.00258668 0.0118391)
(-0.0341797 0.00256561 0.0103134)
(-0.0423899 0.00278579 0.00682722)
(-0.0455907 0.00324094 0.00155747)
(-0.042054 0.00375325 -0.00494666)
(-0.0310182 0.00381645 -0.0106828)
(-0.0142996 0.00288294 -0.011708)
(-0.00244135 0.0005232 -0.00447602)
(-0.000775827 0.000897967 0.00300762)
(-0.00448061 0.000944542 0.00576298)
(-0.0103895 0.000871675 0.00637171)
(-0.0159059 0.000863291 0.00583106)
(-0.0200842 0.000961904 0.0044699)
(-0.021926 0.00116575 0.00227992)
(-0.0204466 0.00140442 -0.000612404)
(-0.0151332 0.00145915 -0.00346296)
(-0.00679116 0.00106844 -0.00453264)
(-0.00102798 7.53741e-06 -0.00195922)
(-0.00121971 -0.00143713 0.00826846)
(-0.00630723 -0.00162493 0.0143251)
(-0.0140324 -0.00153084 0.0153751)
(-0.0212253 -0.0014417 0.0138655)
(-0.0269423 -0.00145042 0.0105361)
(-0.0300441 -0.00159524 0.00537275)
(-0.0290991 -0.00181958 -0.00143021)
(-0.0228174 -0.00187073 -0.00840886)
(-0.0113957 -0.00134699 -0.0117737)
(-0.00223817 0.000157404 -0.00661133)
(-0.00327218 -0.00351735 0.0135418)
(-0.0151831 -0.00431408 0.0258429)
(-0.0322999 -0.00414525 0.0278779)
(-0.0477562 -0.00390171 0.0239053)
(-0.0593639 -0.00387692 0.015661)
(-0.0649336 -0.00414622 0.00352645)
(-0.0619061 -0.00457766 -0.0114531)
(-0.0481274 -0.00459936 -0.025347)
(-0.0244119 -0.00342788 -0.0294443)
(-0.00505117 -0.000288706 -0.0141874)
(-0.00436288 -0.00382338 0.0145406)
(-0.0200237 -0.00511232 0.0290917)
(-0.0422569 -0.00499962 0.031364)
(-0.0619906 -0.00467509 0.025925)
(-0.0764244 -0.00455144 0.014892)
(-0.0829322 -0.00471416 -0.0010995)
(-0.0784491 -0.00499766 -0.0203626)
(-0.0604591 -0.00491543 -0.0373981)
(-0.0303005 -0.00381427 -0.0406275)
(-0.00607274 -0.00100667 -0.01844)
(-0.00477495 -0.00268052 0.0143371)
(-0.0221013 -0.00376517 0.0294754)
(-0.0467246 -0.00371232 0.0317855)
(-0.068424 -0.00344419 0.025718)
(-0.0841297 -0.00329669 0.0134803)
(-0.0909861 -0.00334076 -0.00417841)
(-0.0857107 -0.00343392 -0.025375)
(-0.0656685 -0.00333393 -0.0437096)
(-0.0324712 -0.00265234 -0.0462252)
(-0.00625886 -0.000909109 -0.0204455)
(-0.00487857 -0.000942595 0.014068)
(-0.0227678 -0.00135441 0.0292974)
(-0.0482681 -0.00133996 0.0316242)
(-0.0706948 -0.00123683 0.025377)
(-0.0868749 -0.00117125 0.0127586)
(-0.0938568 -0.00116977 -0.00546246)
(-0.0882725 -0.00118516 -0.0273006)
(-0.0674496 -0.00114462 -0.0460776)
(-0.0331147 -0.000924736 -0.0483012)
(-0.00624562 -0.00035456 -0.0211692)
(-0.00487857 0.000942617 0.014068)
(-0.0227678 0.00135441 0.0292974)
(-0.0482681 0.00133996 0.0316242)
(-0.0706948 0.00123684 0.025377)
(-0.0868749 0.00117126 0.0127586)
(-0.0938568 0.00116977 -0.00546246)
(-0.0882725 0.00118517 -0.0273006)
(-0.0674496 0.00114462 -0.0460776)
(-0.0331147 0.000924739 -0.0483012)
(-0.00624562 0.000354561 -0.0211692)
(-0.00477495 0.00268054 0.0143371)
(-0.0221013 0.00376517 0.0294754)
(-0.0467246 0.00371231 0.0317855)
(-0.068424 0.00344419 0.025718)
(-0.0841297 0.0032967 0.0134803)
(-0.0909861 0.00334077 -0.00417842)
(-0.0857107 0.00343392 -0.025375)
(-0.0656685 0.00333393 -0.0437096)
(-0.0324712 0.00265235 -0.0462252)
(-0.00625886 0.00090911 -0.0204455)
(-0.00436288 0.00382339 0.0145406)
(-0.0200237 0.00511231 0.0290918)
(-0.0422569 0.00499962 0.031364)
(-0.0619906 0.00467509 0.025925)
(-0.0764243 0.00455145 0.014892)
(-0.0829322 0.00471416 -0.00109951)
(-0.0784491 0.00499767 -0.0203626)
(-0.0604591 0.00491543 -0.0373981)
(-0.0303005 0.00381427 -0.0406275)
(-0.00607275 0.00100667 -0.01844)
(-0.00327216 0.00351735 0.0135418)
(-0.0151831 0.00431406 0.0258429)
(-0.0322999 0.00414525 0.0278779)
(-0.0477562 0.00390172 0.0239053)
(-0.0593639 0.00387692 0.015661)
(-0.0649336 0.00414623 0.00352645)
(-0.0619061 0.00457767 -0.0114531)
(-0.0481274 0.00459937 -0.025347)
(-0.0244119 0.00342787 -0.0294443)
(-0.00505117 0.000288704 -0.0141874)
(-0.00121971 0.00143713 0.00826844)
(-0.00630723 0.00162492 0.0143251)
(-0.0140324 0.00153083 0.0153751)
(-0.0212253 0.0014417 0.0138655)
(-0.0269424 0.00145042 0.0105361)
(-0.0300441 0.00159524 0.00537275)
(-0.0290991 0.00181958 -0.00143021)
(-0.0228174 0.00187073 -0.00840886)
(-0.0113957 0.00134699 -0.0117737)
(-0.00223818 -0.000157407 -0.00661132)
(-0.00170712 -0.00201701 0.0153561)
(-0.00814626 -0.00231582 0.0254392)
(-0.0175416 -0.00214937 0.0268781)
(-0.026383 -0.00192134 0.024291)
(-0.0340284 -0.00177893 0.0189367)
(-0.0393804 -0.00181136 0.0105378)
(-0.0404347 -0.00201047 -0.00115912)
(-0.0344004 -0.00217108 -0.0142911)
(-0.0197081 -0.00170352 -0.0224068)
(-0.00491728 0.000155817 -0.0148214)
(-0.00453474 -0.00485524 0.0250814)
(-0.0199287 -0.00596854 0.0454107)
(-0.0413556 -0.00558587 0.0481585)
(-0.0608706 -0.00492063 0.0413905)
(-0.0766825 -0.0044043 0.0279772)
(-0.0865305 -0.00423403 0.00801837)
(-0.0867098 -0.00439006 -0.017832)
(-0.0723751 -0.00454498 -0.0441823)
(-0.0413883 -0.00368881 -0.0558027)
(-0.0102936 -0.000262874 -0.031243)
(-0.0060499 -0.00517245 0.0273586)
(-0.0264366 -0.00685991 0.0513683)
(-0.0545403 -0.00646308 0.0543653)
(-0.0796768 -0.0055646 0.045159)
(-0.0994566 -0.00473165 0.0272301)
(-0.111059 -0.00417027 0.000953576)
(-0.110042 -0.00400841 -0.0321822)
(-0.0907502 -0.00399374 -0.0646207)
(-0.0512317 -0.0034489 -0.0761103)
(-0.0123787 -0.000917694 -0.0400601)
(-0.00662427 -0.00356613 0.0274539)
(-0.0292214 -0.00494305 0.0524836)
(-0.0604299 -0.00466603 0.0555097)
(-0.0881183 -0.00394403 0.0452901)
(-0.109616 -0.00322593 0.0254477)
(-0.121958 -0.00266722 -0.00355366)
(-0.120271 -0.0024124 -0.0398071)
(-0.0984927 -0.00235316 -0.074768)
(-0.0550337 -0.00214126 -0.0858235)
(-0.0129859 -0.000790072 -0.0441108)
(-0.00676721 -0.00124168 0.0272288)
(-0.0300984 -0.00175715 0.0524616)
(-0.0624275 -0.00165945 0.0555198)
(-0.0910478 -0.00138871 0.0450315)
(-0.113193 -0.00111596 0.0246295)
(-0.125792 -0.000905541 -0.00520491)
(-0.123836 -0.000774874 -0.0425196)
(-0.101159 -0.000746335 -0.0783679)
(-0.0562674 -0.000702787 -0.0892786)
(-0.0131285 -0.000299915 -0.0455407)
(-0.00676721 0.00124169 0.0272288)
(-0.0300984 0.00175715 0.0524616)
(-0.0624275 0.00165945 0.0555198)
(-0.0910478 0.00138871 0.0450315)
(-0.113193 0.00111596 0.0246295)
(-0.125792 0.000905541 -0.00520491)
(-0.123836 0.000774875 -0.0425196)
(-0.101159 0.000746336 -0.0783679)
(-0.0562674 0.000702791 -0.0892786)
(-0.0131285 0.000299918 -0.0455407)
(-0.00662427 0.00356615 0.0274539)
(-0.0292214 0.00494305 0.0524836)
(-0.0604299 0.00466602 0.0555097)
(-0.0881183 0.00394403 0.0452901)
(-0.109616 0.00322593 0.0254477)
(-0.121958 0.00266722 -0.00355366)
(-0.120271 0.0024124 -0.0398071)
(-0.0984927 0.00235316 -0.074768)
(-0.0550337 0.00214126 -0.0858235)
(-0.0129859 0.000790074 -0.0441108)
(-0.0060499 0.00517246 0.0273586)
(-0.0264366 0.0068599 0.0513683)
(-0.0545402 0.00646308 0.0543653)
(-0.0796768 0.0055646 0.045159)
(-0.0994566 0.00473165 0.0272301)
(-0.111059 0.00417027 0.000953573)
(-0.110042 0.00400841 -0.0321822)
(-0.0907502 0.00399374 -0.0646206)
(-0.0512317 0.0034489 -0.0761103)
(-0.0123787 0.000917695 -0.0400601)
(-0.00453473 0.00485524 0.0250814)
(-0.0199286 0.00596854 0.0454108)
(-0.0413556 0.00558586 0.0481585)
(-0.0608706 0.00492063 0.0413905)
(-0.0766825 0.0044043 0.0279772)
(-0.0865305 0.00423403 0.00801837)
(-0.0867098 0.00439006 -0.017832)
(-0.0723751 0.00454497 -0.0441823)
(-0.0413883 0.00368881 -0.0558027)
(-0.0102936 0.000262874 -0.031243)
(-0.00170712 0.00201701 0.0153561)
(-0.00814626 0.00231582 0.0254392)
(-0.0175416 0.00214937 0.0268781)
(-0.026383 0.00192135 0.024291)
(-0.0340284 0.00177893 0.0189367)
(-0.0393804 0.00181136 0.0105378)
(-0.0404348 0.00201047 -0.00115911)
(-0.0344004 0.00217107 -0.0142911)
(-0.0197081 0.00170352 -0.0224068)
(-0.00491728 -0.000155817 -0.0148214)
(-0.00253611 -0.00268575 0.0247835)
(-0.0106065 -0.00303385 0.0393765)
(-0.0214916 -0.00264357 0.0409036)
(-0.0317735 -0.00205496 0.0371211)
(-0.0415838 -0.00147017 0.0298876)
(-0.050294 -0.00104039 0.0182448)
(-0.0553399 -0.000916466 0.000645282)
(-0.0517818 -0.0012723 -0.0215362)
(-0.0347239 -0.00142904 -0.0387578)
(-0.0107158 -9.59446e-05 -0.0302219)
(-0.00631562 -0.00635511 0.0401358)
(-0.0256241 -0.00763992 0.0696589)
(-0.0511598 -0.00666149 0.0728328)
(-0.0744807 -0.00497823 0.06318)
(-0.0949183 -0.00315348 0.0448139)
(-0.110686 -0.00155308 0.016728)
(-0.116988 -0.000585385 -0.0224219)
(-0.105463 -0.00100042 -0.0672019)
(-0.0691493 -0.00197184 -0.0947446)
(-0.0206272 -0.000546268 -0.0623155)
(-0.00826149 -0.00664118 0.0440041)
(-0.0337685 -0.00857494 0.0789191)
(-0.0674746 -0.00745774 0.0824987)
(-0.0976844 -0.00528434 0.0696477)
(-0.123159 -0.00280506 0.0452951)
(-0.141366 -0.000486955 0.00854203)
(-0.146615 0.0011338 -0.0413791)
(-0.129558 0.000912541 -0.0964442)
(-0.0835323 -0.000784057 -0.126578)
(-0.0243215 -0.000851635 -0.0785435)
(-0.00896602 -0.00451138 0.044514)
(-0.0371477 -0.00607371 0.081002)
(-0.0745857 -0.00526372 0.0847332)
(-0.107876 -0.00359057 0.070693)
(-0.135509 -0.0016471 0.0439907)
(-0.154531 0.000201555 0.00371715)
(-0.158948 0.00146384 -0.0505461)
(-0.139168 0.00131641 -0.109808)
(-0.0889838 -8.63269e-05 -0.140762)
(-0.0255993 -0.000609717 -0.0856028)
(-0.00912448 -0.00155734 0.0443837)
(-0.0381552 -0.00213877 0.0812373)
(-0.0768949 -0.00184918 0.0850894)
(-0.111263 -0.00123463 0.0708078)
(-0.139646 -0.000512973 0.0435072)
(-0.159019 0.000184769 0.0022303)
(-0.163198 0.000623194 -0.0534513)
(-0.142465 0.000562553 -0.114203)
(-0.0908604 4.13675e-05 -0.145567)
(-0.0260308 -0.000209153 -0.0880238)
(-0.00912448 0.00155735 0.0443837)
(-0.0381552 0.00213877 0.0812373)
(-0.0768949 0.00184917 0.0850894)
(-0.111263 0.00123462 0.0708078)
(-0.139646 0.000512965 0.0435072)
(-0.159019 -0.000184775 0.0022303)
(-0.163198 -0.000623196 -0.0534513)
(-0.142465 -0.00056255 -0.114203)
(-0.0908604 -4.13597e-05 -0.145567)
(-0.0260308 0.000209158 -0.0880238)
(-0.00896602 0.0045114 0.044514)
(-0.0371477 0.00607371 0.081002)
(-0.0745857 0.00526371 0.0847332)
(-0.107876 0.00359057 0.070693)
(-0.135509 0.00164709 0.0439907)
(-0.154531 -0.000201559 0.00371715)
(-0.158948 -0.00146383 -0.0505461)
(-0.139168 -0.00131641 -0.109808)
(-0.0889838 8.6334e-05 -0.140762)
(-0.0255993 0.000609722 -0.0856028)
(-0.00826149 0.00664119 0.0440041)
(-0.0337685 0.00857494 0.0789191)
(-0.0674746 0.00745774 0.0824987)
(-0.0976843 0.00528433 0.0696477)
(-0.123159 0.00280506 0.0452951)
(-0.141366 0.000486954 0.00854203)
(-0.146615 -0.00113379 -0.0413791)
(-0.129558 -0.000912536 -0.0964442)
(-0.0835323 0.000784062 -0.126578)
(-0.0243215 0.000851637 -0.0785435)
(-0.00631562 0.00635511 0.0401358)
(-0.0256241 0.00763992 0.0696589)
(-0.0511598 0.00666149 0.0728328)
(-0.0744807 0.00497823 0.06318)
(-0.0949183 0.00315348 0.0448139)
(-0.110686 0.00155308 0.016728)
(-0.116988 0.000585388 -0.0224218)
(-0.105463 0.00100042 -0.0672019)
(-0.0691493 0.00197184 -0.0947446)
(-0.0206272 0.000546271 -0.0623155)
(-0.00253611 0.00268575 0.0247835)
(-0.0106065 0.00303385 0.0393765)
(-0.0214916 0.00264357 0.0409036)
(-0.0317735 0.00205496 0.0371211)
(-0.0415838 0.00147016 0.0298876)
(-0.050294 0.00104039 0.0182448)
(-0.0553399 0.000916465 0.000645289)
(-0.0517818 0.00127231 -0.0215362)
(-0.0347239 0.00142904 -0.0387578)
(-0.0107158 9.59483e-05 -0.0302219)
(-0.00424625 -0.00348741 0.0375825)
(-0.0144543 -0.00372028 0.0561264)
(-0.0258873 -0.00275179 0.0565313)
(-0.0363006 -0.00129496 0.050908)
(-0.0473417 0.000413104 0.0417345)
(-0.0596714 0.00216791 0.0269669)
(-0.0708582 0.00336287 0.00281718)
(-0.0735339 0.00288364 -0.0314775)
(-0.0577609 0.000922519 -0.0637438)
(-0.0210529 -0.000486691 -0.0588161)
(-0.00930957 -0.0080586 0.0599239)
(-0.0330838 -0.00915361 0.0985552)
(-0.0611446 -0.00676813 0.100858)
(-0.0857213 -0.00284791 0.0878705)
(-0.108316 0.0019325 0.0649778)
(-0.128881 0.00693527 0.0292536)
(-0.142763 0.0105265 -0.0243194)
(-0.138612 0.00969658 -0.0930977)
(-0.104133 0.004021 -0.14807)
(-0.0361956 -0.00119953 -0.116961)
(-0.0116527 -0.00821779 0.0656003)
(-0.0426048 -0.0100618 0.111624)
(-0.0798986 -0.00740512 0.11481)
(-0.111854 -0.0026922 0.0983737)
(-0.139389 0.00312206 0.068687)
(-0.161663 0.00909444 0.0226432)
(-0.173303 0.0132218 -0.0447164)
(-0.162674 0.0121529 -0.128361)
(-0.119482 0.00534286 -0.191075)
(-0.0408143 -0.00102043 -0.143826)
(-0.0124104 -0.00549019 0.0665552)
(-0.0462872 -0.0070271 0.114826)
(-0.0876322 -0.00515323 0.118524)
(-0.122724 -0.00170499 0.101094)
(-0.152149 0.00254462 0.0691178)
(-0.174662 0.00683179 0.0193263)
(-0.184743 0.00964626 -0.0533513)
(-0.171059 0.00872711 -0.142937)
(-0.124793 0.00387157 -0.208765)
(-0.0425352 -0.000541864 -0.15485)
(-0.0125396 -0.00187776 0.0665274)
(-0.0472636 -0.00245578 0.115367)
(-0.0899386 -0.00179742 0.119384)
(-0.126073 -0.000566506 0.101901)
(-0.156144 0.000945588 0.0694811)
(-0.1788 0.00245424 0.0186966)
(-0.188472 0.00340576 -0.0556491)
(-0.173921 0.00304956 -0.147418)
(-0.12681 0.00135928 -0.214608)
(-0.0432598 -0.000149695 -0.158613)
(-0.0125396 0.00187777 0.0665274)
(-0.0472636 0.00245578 0.115367)
(-0.0899386 0.00179741 0.119384)
(-0.126073 0.000566496 0.101901)
(-0.156144 -0.000945598 0.0694811)
(-0.1788 -0.00245424 0.0186966)
(-0.188472 -0.00340576 -0.0556491)
(-0.173921 -0.00304956 -0.147418)
(-0.12681 -0.00135928 -0.214608)
(-0.0432598 0.000149702 -0.158613)
(-0.0124104 0.0054902 0.0665552)
(-0.0462872 0.0070271 0.114826)
(-0.0876322 0.00515322 0.118524)
(-0.122724 0.00170498 0.101094)
(-0.152149 -0.00254463 0.0691178)
(-0.174662 -0.00683179 0.0193264)
(-0.184743 -0.00964626 -0.0533513)
(-0.171059 -0.00872711 -0.142937)
(-0.124793 -0.00387156 -0.208765)
(-0.0425352 0.000541869 -0.15485)
(-0.0116527 0.0082178 0.0656003)
(-0.0426048 0.0100618 0.111624)
(-0.0798986 0.00740512 0.11481)
(-0.111854 0.00269219 0.0983737)
(-0.139389 -0.00312206 0.068687)
(-0.161663 -0.00909444 0.0226432)
(-0.173303 -0.0132218 -0.0447164)
(-0.162674 -0.0121529 -0.128361)
(-0.119482 -0.00534286 -0.191075)
(-0.0408143 0.00102043 -0.143826)
(-0.00930957 0.0080586 0.0599239)
(-0.0330838 0.00915361 0.0985552)
(-0.0611446 0.00676813 0.100858)
(-0.0857213 0.0028479 0.0878705)
(-0.108316 -0.0019325 0.0649778)
(-0.128881 -0.00693527 0.0292536)
(-0.142763 -0.0105265 -0.0243194)
(-0.138612 -0.00969657 -0.0930977)
(-0.104133 -0.004021 -0.14807)
(-0.0361956 0.00119953 -0.116961)
(-0.00424625 0.00348741 0.0375824)
(-0.0144543 0.00372028 0.0561264)
(-0.0258873 0.00275179 0.0565313)
(-0.0363006 0.00129496 0.050908)
(-0.0473417 -0.000413104 0.0417345)
(-0.0596714 -0.00216791 0.0269669)
(-0.0708582 -0.00336286 0.00281718)
(-0.0735339 -0.00288363 -0.0314775)
(-0.0577609 -0.000922517 -0.0637438)
(-0.0210529 0.000486692 -0.0588161)
(-0.00820251 -0.00456556 0.0563042)
(-0.0213406 -0.00444172 0.0748437)
(-0.0300594 -0.00233933 0.0709577)
(-0.0367722 0.000666144 0.0615962)
(-0.0455521 0.00427188 0.0497934)
(-0.0593172 0.00826375 0.0321871)
(-0.0772806 0.0114723 0.0022814)
(-0.0904547 0.0111482 -0.045689)
(-0.0840768 0.00605099 -0.0989299)
(-0.0346021 -0.00103084 -0.108884)
(-0.0151893 -0.0101748 0.087158)
(-0.0437588 -0.0105635 0.130683)
(-0.0687123 -0.00561839 0.128153)
(-0.0868444 0.00193947 0.110035)
(-0.103329 0.0112152 0.0829115)
(-0.121468 0.021263 0.0418305)
(-0.139528 0.0288179 -0.0226555)
(-0.145904 0.0273316 -0.115951)
(-0.127224 0.0138269 -0.209151)
(-0.0489911 -0.00308184 -0.203792)
(-0.0178307 -0.0100214 0.0945257)
(-0.0538625 -0.0113596 0.147587)
(-0.0879496 -0.00618118 0.146707)
(-0.112065 0.00225827 0.125611)
(-0.130826 0.0126366 0.0919981)
(-0.147054 0.023375 0.0405639)
(-0.159286 0.0305596 -0.0384335)
(-0.157334 0.0277068 -0.149567)
(-0.13376 0.0129592 -0.257242)
(-0.0508209 -0.00268004 -0.241943)
(-0.0185091 -0.00655198 0.0957218)
(-0.0572599 -0.0078339 0.151714)
(-0.0950938 -0.00433766 0.151924)
(-0.121545 0.00155558 0.13044)
(-0.14084 0.00878582 0.0951088)
(-0.15558 0.0160494 0.0403124)
(-0.16473 0.0205099 -0.0439389)
(-0.159371 0.0180352 -0.162116)
(-0.135321 0.00811272 -0.275738)
(-0.0518249 -0.00146127 -0.256904)
(-0.0185459 -0.00221552 0.0956992)
(-0.0579393 -0.00272092 0.152439)
(-0.0968644 -0.00152104 0.153233)
(-0.124011 0.000531809 0.13202)
(-0.143472 0.00303873 0.0965549)
(-0.157821 0.00551894 0.0409673)
(-0.166227 0.00696999 -0.0450069)
(-0.160201 0.00603707 -0.165946)
(-0.136487 0.00268241 -0.28203)
(-0.0525882 -0.000414302 -0.262178)
(-0.0185459 0.00221553 0.0956992)
(-0.0579393 0.00272092 0.152439)
(-0.0968644 0.00152103 0.153233)
(-0.124011 -0.000531822 0.13202)
(-0.143472 -0.00303875 0.0965549)
(-0.157821 -0.00551895 0.0409673)
(-0.166227 -0.00696999 -0.0450069)
(-0.160201 -0.00603707 -0.165946)
(-0.136487 -0.0026824 -0.28203)
(-0.0525882 0.000414312 -0.262178)
(-0.0185091 0.00655199 0.0957218)
(-0.0572599 0.00783389 0.151714)
(-0.0950938 0.00433765 0.151924)
(-0.121545 -0.00155559 0.13044)
(-0.14084 -0.00878583 0.0951088)
(-0.15558 -0.0160494 0.0403124)
(-0.16473 -0.0205099 -0.0439389)
(-0.159371 -0.0180352 -0.162116)
(-0.135321 -0.00811272 -0.275738)
(-0.0518249 0.00146127 -0.256904)
(-0.0178307 0.0100214 0.0945257)
(-0.0538625 0.0113596 0.147587)
(-0.0879496 0.00618118 0.146707)
(-0.112065 -0.00225828 0.125611)
(-0.130826 -0.0126366 0.0919981)
(-0.147054 -0.023375 0.0405639)
(-0.159286 -0.0305596 -0.0384335)
(-0.157334 -0.0277068 -0.149567)
(-0.13376 -0.0129591 -0.257242)
(-0.0508208 0.00268005 -0.241943)
(-0.0151893 0.0101748 0.087158)
(-0.0437588 0.0105635 0.130683)
(-0.0687124 0.00561839 0.128153)
(-0.0868444 -0.00193947 0.110035)
(-0.103329 -0.0112152 0.0829115)
(-0.121468 -0.021263 0.0418305)
(-0.139528 -0.0288179 -0.0226555)
(-0.145904 -0.0273316 -0.115951)
(-0.127224 -0.0138269 -0.209151)
(-0.0489911 0.00308184 -0.203792)
(-0.00820251 0.00456556 0.0563042)
(-0.0213406 0.00444172 0.0748437)
(-0.0300594 0.00233933 0.0709577)
(-0.0367722 -0.000666145 0.0615962)
(-0.0455522 -0.00427188 0.0497934)
(-0.0593172 -0.00826375 0.0321871)
(-0.0772806 -0.0114723 0.0022814)
(-0.0904547 -0.0111482 -0.045689)
(-0.0840768 -0.00605099 -0.0989299)
(-0.0346021 0.00103084 -0.108884)
(-0.0173969 -0.00639077 0.081839)
(-0.0332615 -0.00587025 0.091087)
(-0.0285949 -0.00236281 0.0785477)
(-0.0229616 0.00249254 0.0627077)
(-0.0221025 0.00804602 0.047545)
(-0.0309026 0.0143171 0.0282399)
(-0.0525303 0.0199292 -0.00469193)
(-0.0781575 0.0200729 -0.064006)
(-0.0954565 0.0107704 -0.141245)
(-0.0411396 -0.00458444 -0.187209)
(-0.0281513 -0.0135064 0.120265)
(-0.060621 -0.0132198 0.158802)
(-0.0649283 -0.00544766 0.146025)
(-0.0596355 0.0057583 0.119656)
(-0.0543719 0.018904 0.0889641)
(-0.0554817 0.0332146 0.0478788)
(-0.0679685 0.0449136 -0.0171737)
(-0.083066 0.0434069 -0.124777)
(-0.102071 0.0208399 -0.257959)
(-0.0374392 -0.0107239 -0.313338)
(-0.0313078 -0.0126876 0.128247)
(-0.0709074 -0.0138072 0.178951)
(-0.0820021 -0.00624008 0.168889)
(-0.0783583 0.00528778 0.140312)
(-0.0700144 0.0189961 0.104519)
(-0.0631333 0.0331583 0.0551335)
(-0.0645171 0.0432438 -0.0216015)
(-0.0683252 0.0392766 -0.146288)
(-0.088246 0.0164235 -0.299434)
(-0.0307366 -0.00874223 -0.354283)
(-0.0318693 -0.00805595 0.129283)
(-0.0735619 -0.00934726 0.183627)
(-0.0872787 -0.00449235 0.175371)
(-0.0843131 0.0031757 0.147149)
(-0.0745638 0.0123548 0.110488)
(-0.0640252 0.0215907 0.058707)
(-0.0607162 0.027603 -0.0221459)
(-0.0607488 0.0241716 -0.153662)
(-0.0834672 0.0095928 -0.314684)
(-0.029768 -0.00476955 -0.369586)
(-0.031784 -0.00268226 0.129151)
(-0.0737376 -0.00321763 0.18433)
(-0.0880378 -0.00159631 0.176915)
(-0.0852008 0.00101085 0.149263)
(-0.0750288 0.00413262 0.112771)
(-0.0634782 0.00723781 0.0604736)
(-0.0591153 0.00917136 -0.0218589)
(-0.0587681 0.00790554 -0.156213)
(-0.0832513 0.00310514 -0.320299)
(-0.0303135 -0.0013986 -0.375208)
(-0.031784 0.00268226 0.129151)
(-0.0737376 0.00321762 0.18433)
(-0.0880378 0.00159629 0.176915)
(-0.0852008 -0.00101086 0.149263)
(-0.0750288 -0.00413263 0.112771)
(-0.0634782 -0.00723782 0.0604736)
(-0.0591153 -0.00917135 -0.0218589)
(-0.0587681 -0.00790553 -0.156213)
(-0.0832513 -0.00310513 -0.320299)
(-0.0303135 0.00139861 -0.375208)
(-0.0318693 0.00805595 0.129283)
(-0.0735619 0.00934725 0.183627)
(-0.0872787 0.00449233 0.175371)
(-0.0843131 -0.00317571 0.147149)
(-0.0745638 -0.0123549 0.110488)
(-0.0640252 -0.0215907 0.058707)
(-0.0607162 -0.027603 -0.0221459)
(-0.0607488 -0.0241716 -0.153662)
(-0.0834672 -0.00959279 -0.314684)
(-0.029768 0.00476956 -0.369586)
(-0.0313078 0.0126876 0.128247)
(-0.0709074 0.0138072 0.178951)
(-0.0820021 0.00624007 0.168889)
(-0.0783583 -0.00528779 0.140312)
(-0.0700144 -0.0189961 0.104519)
(-0.0631334 -0.0331583 0.0551335)
(-0.0645171 -0.0432438 -0.0216015)
(-0.0683252 -0.0392766 -0.146288)
(-0.0882461 -0.0164235 -0.299434)
(-0.0307366 0.00874224 -0.354283)
(-0.0281513 0.0135064 0.120265)
(-0.060621 0.0132198 0.158802)
(-0.0649283 0.00544766 0.146025)
(-0.0596355 -0.0057583 0.119656)
(-0.054372 -0.018904 0.0889641)
(-0.0554817 -0.0332146 0.0478788)
(-0.0679685 -0.0449136 -0.0171737)
(-0.083066 -0.0434069 -0.124777)
(-0.102071 -0.0208399 -0.257959)
(-0.0374392 0.0107239 -0.313338)
(-0.0173969 0.00639078 0.081839)
(-0.0332615 0.00587025 0.091087)
(-0.0285949 0.00236281 0.0785477)
(-0.0229616 -0.00249254 0.0627077)
(-0.0221025 -0.00804602 0.047545)
(-0.0309026 -0.0143171 0.0282399)
(-0.0525303 -0.0199292 -0.00469193)
(-0.0781575 -0.0200729 -0.064006)
(-0.0954565 -0.0107704 -0.141245)
(-0.0411396 0.00458443 -0.187209)
(-0.0242156 -0.0107698 0.151888)
(-0.0231292 -0.0101641 0.0993541)
(0.0204642 -0.00555734 0.0636853)
(0.050643 0.000491643 0.0426584)
(0.069692 0.00672626 0.0272185)
(0.0732588 0.0136583 0.0107408)
(0.0544876 0.0207493 -0.0165753)
(0.021096 0.0210705 -0.0730705)
(-0.0433634 0.00740808 -0.167791)
(-0.00708587 -0.0157404 -0.255293)
(-0.0436983 -0.0210603 0.211126)
(-0.047677 -0.0214926 0.167671)
(0.0101575 -0.0125907 0.123395)
(0.0601181 -0.000337393 0.0911892)
(0.100923 0.0132029 0.0635776)
(0.128262 0.0278768 0.0328682)
(0.128883 0.0422742 -0.0136713)
(0.11432 0.0429215 -0.102698)
(0.0298985 0.0146082 -0.250537)
(0.0401916 -0.0276227 -0.364759)
(-0.0488942 -0.0176914 0.220617)
(-0.0570695 -0.0206629 0.185399)
(-7.15539e-05 -0.0133253 0.143074)
(0.0540993 -0.00220439 0.109714)
(0.102926 0.010958 0.0790709)
(0.142693 0.0248264 0.0434135)
(0.156026 0.0370317 -0.00961369)
(0.154938 0.0357906 -0.107748)
(0.0667695 0.0102194 -0.271499)
(0.058325 -0.0187606 -0.391577)
(-0.0494166 -0.0105845 0.221087)
(-0.0584669 -0.0133381 0.188281)
(-0.00231164 -0.0090778 0.147626)
(0.0526478 -0.00214696 0.115061)
(0.103736 0.00624285 0.0842874)
(0.147698 0.0150787 0.0472841)
(0.164981 0.0224019 -0.00825287)
(0.167462 0.0211687 -0.10994)
(0.075552 0.00637637 -0.279188)
(0.0610602 -0.00935626 -0.400984)
(-0.0491162 -0.00342866 0.220582)
(-0.0579309 -0.004489 0.188192)
(-0.00180599 -0.00313398 0.148232)
(0.0533984 -0.000853699 0.116257)
(0.10502 0.00193951 0.0857828)