/*--------------------------------*- C++ -*----------------------------------*\
  =========                 |
  \\      /  F ield         | OpenFOAM: The Open Source CFD Toolbox
   \\    /   O peration     | Website:  https://openfoam.org
    \\  /    A nd           | Version:  9
     \\/     M anipulation  |
\*---------------------------------------------------------------------------*/
FoamFile
{
    format      ascii;
    class       volScalarField;
    location    "0.74";
    object      p;
}
// * * * * * * * * * * * * * * * * * * * * * * * * * * * * * * * * * * * * * //

dimensions      [0 2 -2 0 0 0 0];

internalField   nonuniform List<scalar> 
1000
(
-3.32794e-06
-0.00049195
-0.000175914
0.000891939
0.00278385
0.00537203
0.00819656
0.0104961
0.0115679
0.0107136
0.000166314
-0.000732988
-0.000524584
0.000588334
0.00266145
0.00554806
0.00871391
0.0112319
0.0122468
0.0108442
0.000941945
-0.000231375
-6.13706e-05
0.00115207
0.00347321
0.00672844
0.0102751
0.0129388
0.0137068
0.0115637
0.00178028
0.000424498
0.000581136
0.00189529
0.00444337
0.00803597
0.0118486
0.0145679
0.0150764
0.0123422
0.00230669
0.000864776
0.00102054
0.0023945
0.00506752
0.00883299
0.0127915
0.0155218
0.0158739
0.0128262
0.00230663
0.000864738
0.00102052
0.0023945
0.00506751
0.00883298
0.0127915
0.0155217
0.0158739
0.0128262
0.00178011
0.000424377
0.000581078
0.00189526
0.00444334
0.00803593
0.0118485
0.0145679
0.0150763
0.0123421
0.000941591
-0.00023161
-6.15011e-05
0.001152
0.00347315
0.00672837
0.010275
0.0129387
0.0137067
0.0115636
0.000165554
-0.00073336
-0.000524805
0.000588195
0.00266135
0.00554797
0.00871382
0.0112318
0.0122467
0.010844
-5.51056e-06
-0.00049254
-0.000176214
0.000891748
0.00278371
0.00537191
0.00819646
0.010496
0.0115678
0.0107135
0.000400514
-3.19807e-05
0.000304189
0.00124352
0.00288663
0.00518424
0.00777217
0.00998364
0.011076
0.00993788
0.000938314
1.95201e-05
0.000273391
0.00120345
0.00288188
0.00527338
0.00800514
0.0103426
0.0113955
0.00960277
0.00215082
0.000825087
0.00101015
0.00193609
0.00368269
0.00622036
0.00918756
0.0116033
0.0124511
0.00990797
0.003301
0.00166423
0.00178731
0.00271182
0.00453249
0.00723915
0.0103757
0.0128212
0.0134614
0.0103687
0.00398551
0.0021831
0.0022712
0.00319494
0.0050577
0.00786535
0.0110884
0.013536
0.014053
0.010688
0.00398547
0.00218308
0.00227119
0.00319493
0.0050577
0.00786534
0.0110884
0.013536
0.014053
0.010688
0.00330088
0.00166415
0.00178727
0.0027118
0.00453247
0.00723912
0.0103757
0.0128211
0.0134614
0.0103686
0.00215059
0.000824916
0.00101005
0.00193603
0.00368263
0.0062203
0.00918751
0.0116033
0.012451
0.0099079
0.000937912
1.92416e-05
0.000273219
0.00120334
0.00288179
0.0052733
0.00800506
0.0103425
0.0113954
0.00960266
0.000399886
-3.23465e-05
0.000303949
0.00124336
0.00288651
0.00518414
0.00777208
0.00998354
0.0110759
0.00993774
-0.000944383
-0.00151061
-0.00129483
-0.00055845
0.000906455
0.00322508
0.00617866
0.00908317
0.0108464
0.00953951
-8.47577e-05
-0.0013046
-0.00117453
-0.000442444
0.00106171
0.00350019
0.00665182
0.00972889
0.0114192
0.00896631
0.00164691
-0.000159754
-0.000159006
0.000478086
0.00195623
0.00449787
0.00786503
0.0110725
0.0125643
0.0090653
0.00322263
0.000967933
0.000843076
0.0013867
0.00284723
0.00549189
0.00899341
0.012249
0.0135389
0.00933986
0.00413886
0.00164563
0.0014469
0.00193562
0.00338724
0.00608009
0.00964466
0.012905
0.014076
0.00955195
0.00413885
0.00164562
0.0014469
0.00193563
0.00338724
0.00608009
0.00964466
0.012905
0.014076
0.00955194
0.00322257
0.000967886
0.000843059
0.0013867
0.00284722
0.00549187
0.00899339
0.012249
0.0135389
0.00933983
0.00164676
-0.000159864
-0.000159062
0.000478051
0.00195619
0.00449782
0.00786499
0.0110724
0.0125642
0.00906524
-8.50198e-05
-0.00130479
-0.00117465
-0.000442519
0.00106164
0.00350013
0.00665175
0.00972882
0.0114191
0.00896622
-0.000944715
-0.00151087
-0.001295
-0.000558572
0.000906353
0.003225
0.00617858
0.00908308
0.0108463
0.00953941
-0.00443107
-0.0051246
-0.00508395
-0.00462676
-0.0033632
-0.000860097
0.00294583
0.00743434
0.010896
0.0100014
-0.00324972
-0.0047481
-0.00479593
-0.00432518
-0.0029892
-0.000308545
0.00379977
0.0086218
0.0120149
0.00938562
-0.000989561
-0.00325484
-0.00353917
-0.00331899
-0.00217578
0.000517888
0.00477564
0.00986064
0.0131857
0.00938343
0.0010264
-0.0018223
-0.00233767
-0.00236484
-0.00141399
0.00120634
0.00558892
0.010794
0.0140156
0.00951741
0.00218386
-0.000974091
-0.00162527
-0.00179632
-0.000951259
0.00162944
0.00602755
0.0112655
0.0144227
0.00963204
0.00218386
-0.00097409
-0.00162526
-0.00179631
-0.000951258
0.00162943
0.00602754
0.0112655
0.0144227
0.00963203
0.00102638
-0.00182231
-0.00233766
-0.00236484
-0.001414
0.00120632
0.00558889
0.0107939
0.0140155
0.00951737
-0.000989634
-0.00325489
-0.00353919
-0.00331901
-0.00217581
0.000517852
0.00477559
0.00986059
0.0131857
0.00938337
-0.00324986
-0.0047482
-0.00479598
-0.00432522
-0.00298925
-0.000308601
0.00379971
0.00862173
0.0120148
0.00938554
-0.00443126
-0.00512473
-0.00508404
-0.00462683
-0.00336327
-0.000860164
0.00294576
0.00743426
0.0108959
0.0100013
-0.0107432
-0.0113931
-0.0114514
-0.0112888
-0.0102902
-0.00752605
-0.00236873
0.00487647
0.0116932
0.0128935
-0.00928236
-0.0108634
-0.0110312
-0.0108736
-0.00980941
-0.00692362
-0.00146318
0.00633756
0.0133247
0.0126666
-0.00660548
-0.00911892
-0.00970047
-0.010065
-0.00953735
-0.00697559
-0.00152756
0.00671219
0.0140181
0.0126736
-0.00426095
-0.00747591
-0.00844616
-0.00929481
-0.0092336
-0.00695671
-0.00160162
0.00685492
0.0143478
0.0127263
-0.00293134
-0.00651478
-0.00770808
-0.00882622
-0.0090166
-0.0069247
-0.00162644
0.00689395
0.0144546
0.012757
-0.00293133
-0.00651477
-0.00770807
-0.00882621
-0.0090166
-0.00692471
-0.00162645
0.00689393
0.0144546
0.012757
-0.00426094
-0.0074759
-0.00844615
-0.00929481
-0.00923362
-0.00695674
-0.00160165
0.00685488
0.0143478
0.0127262
-0.0066055
-0.00911892
-0.00970047
-0.0100651
-0.00953738
-0.00697564
-0.00152762
0.00671213
0.0140181
0.0126735
-0.00928242
-0.0108634
-0.0110313
-0.0108736
-0.00980945
-0.00692368
-0.00146325
0.00633749
0.0133246
0.0126665
-0.0107433
-0.0113931
-0.0114514
-0.0112888
-0.0102902
-0.00752611
-0.00236879
0.0048764
0.0116932
0.0128934
-0.0205074
-0.0205767
-0.0203674
-0.0203463
-0.0195935
-0.0165957
-0.00970112
0.00162547
0.0144526
0.0211088
-0.0187983
-0.0199474
-0.0199327
-0.020045
-0.0194905
-0.0167675
-0.0100487
0.00180271
0.0152822
0.0214647
-0.0158406
-0.0180704
-0.0187236
-0.0197676
-0.0202727
-0.0185039
-0.0122865
8.60404e-05
0.0146506
0.0214806
-0.0133134
-0.01633
-0.0175667
-0.0193962
-0.020738
-0.0196917
-0.0138434
-0.00122101
0.013987
0.0213977
-0.0119034
-0.0153255
-0.0168844
-0.0191264
-0.0208821
-0.0201554
-0.0145363
-0.00185287
0.0136194
0.0213222
-0.0119034
-0.0153255
-0.0168844
-0.0191264
-0.0208821
-0.0201554
-0.0145364
-0.00185289
0.0136194
0.0213221
-0.0133134
-0.01633
-0.0175667
-0.0193962
-0.020738
-0.0196917
-0.0138434
-0.00122106
0.013987
0.0213976
-0.0158406
-0.0180704
-0.0187236
-0.0197676
-0.0202727
-0.018504
-0.0122865
8.59773e-05
0.0146505
0.0214805
-0.0187983
-0.0199474
-0.0199328
-0.0200451
-0.0194905
-0.0167675
-0.0100488
0.00180264
0.0152821
0.0214646
-0.0205075
-0.0205767
-0.0203674
-0.0203464
-0.0195936
-0.0165958
-0.00970119
0.0016254
0.0144525
0.0211087
-0.0348055
-0.0325599
-0.0310893
-0.0306648
-0.0300105
-0.0268701
-0.018324
-0.00172559
0.0202048
0.0389279
-0.0326503
-0.031782
-0.0307439
-0.030823
-0.0309285
-0.0289364
-0.0216487
-0.00523165
0.0178688
0.0390402
-0.0293933
-0.0297083
-0.0296416
-0.0311487
-0.0329892
-0.0328143
-0.0268571
-0.0101321
0.0148
0.0388821
-0.0267401
-0.0278625
-0.0285557
-0.0311368
-0.0341854
-0.0351689
-0.0299949
-0.0130895
0.0128864
0.0387436
-0.0252998
-0.0268264
-0.0279206
-0.0310283
-0.034629
-0.0361154
-0.0312875
-0.0143383
0.0120565
0.0386618
-0.0252998
-0.0268264
-0.0279206
-0.0310284
-0.034629
-0.0361154
-0.0312876
-0.0143384
0.0120564
0.0386618
-0.0267401
-0.0278625
-0.0285557
-0.0311368
-0.0341854
-0.035169
-0.029995
-0.0130895
0.0128863
0.0387436
-0.0293933
-0.0297083
-0.0296416
-0.0311488
-0.0329892
-0.0328144
-0.0268571
-0.0101322
0.0147999
0.038882
-0.0326503
-0.031782
-0.0307439
-0.0308231
-0.0309286
-0.0289365
-0.0216488
-0.00523174
0.0178687
0.0390401
-0.0348056
-0.03256
-0.0310894
-0.0306649
-0.0300106
-0.0268702
-0.018324
-0.00172567
0.0202047
0.0389278
-0.0574534
-0.0469155
-0.0421229
-0.0400333
-0.0389167
-0.0354208
-0.0255764
-0.00306197
0.0303287
0.0732271
-0.0541736
-0.045447
-0.0415237
-0.0407163
-0.0411848
-0.0399326
-0.0330295
-0.0120589
0.0225653
0.0736871
-0.0500056
-0.0425215
-0.0397835
-0.0409669
-0.0438238
-0.0450172
-0.0402019
-0.0191387
0.0178452
0.0751247
-0.0469141
-0.0401892
-0.0382768
-0.0407494
-0.0450999
-0.0476719
-0.0439196
-0.022546
0.0158609
0.0764789
-0.0453302
-0.0389687
-0.0374745
-0.0405382
-0.0455183
-0.0486332
-0.0453189
-0.0237923
0.0152272
0.0771343
-0.0453302
-0.0389687
-0.0374745
-0.0405382
-0.0455183
-0.0486332
-0.0453189
-0.0237923
0.0152272
0.0771342
-0.0469141
-0.0401892
-0.0382768
-0.0407494
-0.0450999
-0.047672
-0.0439197
-0.022546
0.0158608
0.0764789
-0.0500057
-0.0425215
-0.0397836
-0.0409669
-0.0438239
-0.0450173
-0.040202
-0.0191387
0.0178451
0.0751246
-0.0541737
-0.0454471
-0.0415238
-0.0407164
-0.0411849
-0.0399327
-0.0330296
-0.012059
0.0225652
0.073687
-0.0574535
-0.0469156
-0.042123
-0.0400334
-0.0389168
-0.0354209
-0.0255764
-0.00306207
0.0303286
0.0732269
-0.0889809
-0.0611666
-0.0518946
-0.0462568
-0.0435176
-0.0389537
-0.0263004
0.00470323
0.0516567
0.150873
-0.0813066
-0.057211
-0.0504764
-0.0472602
-0.0468933
-0.0450692
-0.0361425
-0.00608706
0.0452823
0.162512
-0.0748958
-0.0523916
-0.0472182
-0.04653
-0.0490974
-0.0499328
-0.043079
-0.0113944
0.0463217
0.171566
-0.0708999
-0.0490974
-0.0448154
-0.0456523
-0.0499239
-0.0522292
-0.0461969
-0.0132164
0.0476237
0.177269
-0.0690544
-0.0475201
-0.0436573
-0.0451694
-0.0501486
-0.0530385
-0.0472928
-0.0137902
0.0483402
0.179746
-0.0690545
-0.0475201
-0.0436573
-0.0451694
-0.0501486
-0.0530385
-0.0472928
-0.0137902
0.0483402
0.179746
-0.0708999
-0.0490974
-0.0448154
-0.0456523
-0.049924
-0.0522293
-0.0461969
-0.0132165
0.0476236
0.177269
-0.0748958
-0.0523917
-0.0472183
-0.04653
-0.0490975
-0.0499329
-0.043079
-0.0113944
0.0463216
0.171566
-0.0813067
-0.0572111
-0.0504764
-0.0472602
-0.0468933
-0.0450692
-0.0361426
-0.00608716
0.0452822
0.162512
-0.088981
-0.0611667
-0.0518946
-0.0462568
-0.0435176
-0.0389537
-0.0263005
0.00470312
0.0516566
0.150873
-0.199241
-0.0738477
-0.0488266
-0.0403472
-0.0360477
-0.0292956
-0.0124
0.0328101
0.119028
0.324651
-0.186943
-0.0611217
-0.0410177
-0.0369582
-0.0363227
-0.0329027
-0.0184087
0.0296302
0.129526
0.35928
-0.178041
-0.0521937
-0.0343569
-0.0333828
-0.0359439
-0.0349094
-0.0214031
0.0297298
0.138839
0.38014
-0.172899
-0.0471366
-0.03032
-0.0310688
-0.0354663
-0.0357497
-0.0225687
0.0302048
0.143455
0.390163
-0.170639
-0.0449596
-0.028568
-0.0300443
-0.0352169
-0.0360624
-0.0230144
0.0304116
0.145214
0.393981
-0.170639
-0.0449596
-0.028568
-0.0300443
-0.0352169
-0.0360624
-0.0230145
0.0304116
0.145214
0.393981
-0.172899
-0.0471367
-0.03032
-0.0310688
-0.0354663
-0.0357497
-0.0225687
0.0302048
0.143455
0.390163
-0.178041
-0.0521937
-0.034357
-0.0333829
-0.0359439
-0.0349095
-0.0214031
0.0297297
0.138839
0.380139
-0.186943
-0.0611218
-0.0410178
-0.0369582
-0.0363227
-0.0329027
-0.0184087
0.0296301
0.129526
0.35928
-0.199241
-0.0738478
-0.0488267
-0.0403473
-0.0360477
-0.0292956
-0.0124001
0.03281
0.119028
0.324651
)
;

boundaryField
{
    top
    {
        type            zeroGradient;
    }
    others
    {
        type            zeroGradient;
    }
}


// ************************************************************************* //
