/*--------------------------------*- C++ -*----------------------------------*\
  =========                 |
  \\      /  F ield         | OpenFOAM: The Open Source CFD Toolbox
   \\    /   O peration     | Website:  https://openfoam.org
    \\  /    A nd           | Version:  9
     \\/     M anipulation  |
\*---------------------------------------------------------------------------*/
FoamFile
{
    format      ascii;
    class       volScalarField;
    location    "0.58";
    object      p;
}
// * * * * * * * * * * * * * * * * * * * * * * * * * * * * * * * * * * * * * //

dimensions      [0 2 -2 0 0 0 0];

internalField   nonuniform List<scalar> 
1000
(
-1.4612e-06
-0.000468163
-0.000115945
0.000992126
0.00291345
0.00551453
0.00834179
0.0106467
0.0117316
0.0108939
0.000170372
-0.000693218
-0.00044496
0.000705053
0.00279948
0.00568836
0.00884748
0.0113679
0.0124
0.0110247
0.000905055
-0.000219495
-7.76282e-06
0.00123782
0.00356943
0.00681423
0.0103451
0.0130151
0.0138162
0.0117209
0.00169036
0.000395407
0.000594568
0.00193505
0.00448203
0.00805005
0.0118436
0.0145779
0.0151375
0.012472
0.0021806
0.000806429
0.00100477
0.00240121
0.00506652
0.00880085
0.0127384
0.0154901
0.015905
0.0129385
0.00218059
0.000806428
0.00100477
0.00240122
0.00506653
0.00880086
0.0127384
0.0154901
0.015905
0.0129385
0.00169037
0.000395419
0.000594583
0.00193509
0.00448204
0.00805008
0.0118437
0.0145779
0.0151375
0.012472
0.000905044
-0.000219473
-7.74188e-06
0.00123788
0.00356943
0.00681425
0.0103451
0.0130152
0.0138162
0.011721
0.000170333
-0.000693153
-0.000444918
0.000705127
0.00279952
0.00568841
0.00884754
0.011368
0.0124
0.0110247
-1.79494e-06
-0.000468105
-0.000115899
0.00099218
0.00291348
0.00551458
0.00834184
0.0106467
0.0117316
0.010894
0.000378322
-4.34747e-05
0.000330692
0.001321
0.00300849
0.00533299
0.00793262
0.0101528
0.0112576
0.0101464
0.000909195
2.1373e-05
0.000315787
0.00129414
0.00301203
0.005424
0.00816364
0.0105062
0.0115724
0.00981117
0.00206186
0.000790015
0.0010226
0.00200103
0.00378639
0.00633506
0.00931047
0.011733
0.0126024
0.0101058
0.00313967
0.00158195
0.00176061
0.0027425
0.00460298
0.00732111
0.0104579
0.0129131
0.013585
0.010552
0.00377588
0.00206852
0.00221726
0.00320149
0.00510474
0.00792154
0.0111436
0.0136043
0.0141596
0.0108617
0.00377588
0.00206852
0.00221727
0.0032015
0.00510475
0.00792155
0.0111436
0.0136043
0.0141596
0.0108617
0.00313968
0.00158196
0.00176061
0.00274252
0.00460298
0.00732113
0.0104579
0.0129132
0.013585
0.010552
0.00206187
0.000790051
0.00102263
0.00200107
0.0037864
0.00633508
0.0093105
0.0117331
0.0126024
0.0101058
0.000909221
2.14232e-05
0.000315831
0.00129419
0.00301207
0.00542406
0.00816369
0.0105063
0.0115724
0.0098112
0.000378379
-4.34091e-05
0.000330754
0.00132105
0.00300854
0.00533305
0.00793267
0.0101529
0.0112576
0.0101464
-0.000946539
-0.00150194
-0.00123325
-0.000423487
0.00110569
0.00346146
0.00642357
0.00932133
0.0110793
0.00979278
-0.000101758
-0.00128501
-0.00110023
-0.000299441
0.00126241
0.00373124
0.00688426
0.00995185
0.0116407
0.00922128
0.00155158
-0.000186249
-0.000116656
0.000602647
0.00214813
0.00473197
0.00808513
0.0112775
0.0127703
0.00931858
0.00303395
0.000883647
0.000843788
0.00148462
0.00301943
0.00569577
0.00919298
0.0124359
0.0137312
0.00958898
0.00388839
0.00152196
0.00141842
0.00201362
0.00354432
0.00626984
0.00983212
0.0130814
0.0142609
0.00979825
0.00388839
0.00152196
0.00141843
0.00201364
0.00354433
0.00626986
0.00983214
0.0130815
0.0142609
0.00979826
0.00303396
0.000883639
0.000843795
0.00148464
0.00301943
0.00569579
0.00919301
0.0124359
0.0137312
0.00958899
0.00155158
-0.00018624
-0.000116635
0.000602674
0.00214814
0.00473199
0.00808516
0.0112775
0.0127703
0.00931861
-0.000101747
-0.001285
-0.00110021
-0.000299406
0.00126243
0.00373128
0.00688431
0.00995191
0.0116407
0.00922131
-0.000946506
-0.00150191
-0.0012332
-0.000423455
0.00110573
0.0034615
0.00642362
0.00932138
0.0110793
0.0097928
-0.00436121
-0.00504225
-0.00493034
-0.0043772
-0.00303565
-0.000495987
0.00330546
0.0077607
0.0111924
0.0103061
-0.00319524
-0.00465774
-0.00463392
-0.0040735
-0.00266732
4.07732e-05
0.00413673
0.00892454
0.0122928
0.00968869
-0.0010199
-0.00321152
-0.00340123
-0.00306716
-0.00183767
0.000882367
0.00513537
0.0101755
0.0134676
0.00969272
0.000893696
-0.00183934
-0.00223434
-0.00212144
-0.00106544
0.00159486
0.00595777
0.0111195
0.0143049
0.00983236
0.00198299
-0.00103279
-0.00154761
-0.00156291
-0.000602757
0.00202386
0.00641103
0.0116018
0.0147183
0.0099509
0.001983
-0.00103279
-0.00154759
-0.00156289
-0.000602738
0.00202387
0.00641104
0.0116018
0.0147183
0.00995091
0.000893709
-0.00183934
-0.00223432
-0.00212141
-0.00106542
0.00159487
0.00595779
0.0111195
0.0143049
0.00983237
-0.0010199
-0.00321151
-0.0034012
-0.00306713
-0.00183765
0.000882387
0.0051354
0.0101755
0.0134676
0.00969275
-0.00319523
-0.00465772
-0.00463388
-0.00407346
-0.00266728
4.08019e-05
0.00413676
0.00892457
0.0122928
0.00968871
-0.00436121
-0.00504223
-0.0049303
-0.00437719
-0.00303562
-0.000495965
0.00330549
0.00776073
0.0111924
0.0103061
-0.0105545
-0.0111961
-0.0111749
-0.0109086
-0.00983379
-0.00704976
-0.00192041
0.00526769
0.0120328
0.0132254
-0.00909848
-0.010658
-0.0107482
-0.010494
-0.00936291
-0.00645875
-0.00102321
0.00672294
0.0136579
0.012994
-0.00649122
-0.00894766
-0.00942276
-0.00966089
-0.00904507
-0.00645827
-0.00103393
0.00714204
0.0143808
0.0130176
-0.00423689
-0.00735325
-0.00818533
-0.00887611
-0.00870702
-0.00640159
-0.00106267
0.00732724
0.0147405
0.0130829
-0.0029688
-0.006427
-0.00746282
-0.00840558
-0.00847603
-0.00633753
-0.00106061
0.00739133
0.0148655
0.0131218
-0.00296879
-0.00642699
-0.0074628
-0.00840557
-0.00847602
-0.00633753
-0.00106061
0.00739133
0.0148655
0.0131218
-0.00423687
-0.00735323
-0.00818531
-0.0088761
-0.00870702
-0.00640158
-0.00106266
0.00732724
0.0147405
0.013083
-0.00649121
-0.00894763
-0.00942274
-0.00966088
-0.00904507
-0.00645827
-0.00103392
0.00714206
0.0143808
0.0130176
-0.00909844
-0.010658
-0.0107482
-0.010494
-0.00936289
-0.00645874
-0.00102319
0.00672297
0.0136579
0.012994
-0.0105544
-0.0111961
-0.0111749
-0.0109086
-0.00983374
-0.00704974
-0.00192038
0.00526773
0.0120328
0.0132255
-0.0201869
-0.020262
-0.0199823
-0.0198702
-0.01906
-0.0160643
-0.00921942
0.0020383
0.0147972
0.0214263
-0.0184623
-0.0196205
-0.0195415
-0.0195692
-0.0189635
-0.0162371
-0.0095514
0.00223709
0.0156467
0.0217889
-0.0155422
-0.017757
-0.0183189
-0.0192522
-0.0196878
-0.017908
-0.0117225
0.000581786
0.0150605
0.0218238
-0.0130767
-0.0160452
-0.0171603
-0.0188516
-0.020112
-0.0190448
-0.0132312
-0.000676827
0.0144344
0.0217574
-0.0117116
-0.0150635
-0.0164827
-0.0185722
-0.0202431
-0.0195081
-0.0139056
-0.00128452
0.0140864
0.021691
-0.0117115
-0.0150635
-0.0164827
-0.0185722
-0.0202431
-0.0195081
-0.0139056
-0.00128452
0.0140864
0.021691
-0.0130766
-0.0160452
-0.0171603
-0.0188515
-0.020112
-0.0190448
-0.0132312
-0.000676806
0.0144344
0.0217575
-0.0155422
-0.017757
-0.0183189
-0.0192522
-0.0196878
-0.017908
-0.0117225
0.000581821
0.0150606
0.0218238
-0.0184622
-0.0196205
-0.0195414
-0.0195692
-0.0189634
-0.0162371
-0.00955138
0.00223712
0.0156468
0.0217889
-0.0201868
-0.0202619
-0.0199822
-0.0198702
-0.0190599
-0.0160642
-0.00921938
0.00203833
0.0147973
0.0214263
-0.0343839
-0.0321749
-0.0306554
-0.0301624
-0.0294734
-0.0263533
-0.0178545
-0.00134358
0.0205085
0.0391899
-0.0321958
-0.0313819
-0.0303082
-0.030324
-0.0303933
-0.0284125
-0.0211644
-0.00481459
0.0182103
0.0393142
-0.0289433
-0.0293076
-0.0291894
-0.0306155
-0.0324131
-0.0322531
-0.0263379
-0.0096783
0.015176
0.0391633
-0.0263203
-0.0274752
-0.0280964
-0.0305818
-0.033591
-0.0345985
-0.0294668
-0.0126187
0.0132827
0.0390289
-0.0249063
-0.0264515
-0.0274612
-0.0304676
-0.0340344
-0.0355521
-0.0307642
-0.0138637
0.0124607
0.038948
-0.0249063
-0.0264515
-0.0274612
-0.0304676
-0.0340344
-0.0355521
-0.0307642
-0.0138637
0.0124607
0.038948
-0.0263203
-0.0274752
-0.0280964
-0.0305818
-0.0335909
-0.0345985
-0.0294668
-0.0126187
0.0132827
0.0390289
-0.0289433
-0.0293076
-0.0291894
-0.0306155
-0.0324131
-0.032253
-0.0263379
-0.00967825
0.015176
0.0391633
-0.0321957
-0.0313818
-0.0303081
-0.030324
-0.0303932
-0.0284125
-0.0211644
-0.00481456
0.0182103
0.0393142
-0.0343839
-0.0321748
-0.0306553
-0.0301624
-0.0294733
-0.0263533
-0.0178545
-0.00134355
0.0205086
0.03919
-0.0570122
-0.0465438
-0.0417152
-0.0395711
-0.038426
-0.0349649
-0.0251936
-0.00276796
0.030539
0.0733849
-0.0536896
-0.0450771
-0.0411302
-0.0402649
-0.0406964
-0.0394705
-0.0326288
-0.0117471
0.0227962
0.0738318
-0.0495099
-0.042158
-0.039396
-0.0405077
-0.0433278
-0.0445638
-0.0398169
-0.0188497
0.0180625
0.0752366
-0.046431
-0.0398365
-0.0378925
-0.040289
-0.044618
-0.0472559
-0.043571
-0.0222911
0.0160596
0.0765624
-0.0448615
-0.0386234
-0.0370916
-0.0400809
-0.0450538
-0.048251
-0.0449983
-0.0235603
0.0154136
0.0772014
-0.0448615
-0.0386234
-0.0370916
-0.0400809
-0.0450538
-0.048251
-0.0449983
-0.0235603
0.0154136
0.0772014
-0.046431
-0.0398365
-0.0378925
-0.040289
-0.044618
-0.0472559
-0.043571
-0.0222911
0.0160596
0.0765624
-0.0495099
-0.042158
-0.039396
-0.0405076
-0.0433278
-0.0445637
-0.0398169
-0.0188496
0.0180625
0.0752367
-0.0536895
-0.045077
-0.0411302
-0.0402649
-0.0406963
-0.0394705
-0.0326288
-0.0117471
0.0227963
0.0738318
-0.0570122
-0.0465438
-0.0417152
-0.0395711
-0.038426
-0.0349649
-0.0251936
-0.00276793
0.030539
0.073385
-0.0886214
-0.0608852
-0.0515839
-0.0458756
-0.0430962
-0.0385593
-0.0260084
0.00488866
0.0517338
0.150901
-0.0809352
-0.0569885
-0.0501911
-0.0468949
-0.046471
-0.0446733
-0.0358622
-0.0059234
0.045325
0.162499
-0.0745354
-0.0522116
-0.0469741
-0.0461872
-0.0486931
-0.0495715
-0.0428545
-0.0112982
0.0462895
0.171493
-0.0705566
-0.0489439
-0.0445894
-0.0453253
-0.0495522
-0.0519224
-0.046037
-0.0131787
0.0475494
0.177151
-0.0687228
-0.047377
-0.0434347
-0.0448489
-0.0498001
-0.0527705
-0.0471735
-0.0137856
0.0482418
0.179604
-0.0687228
-0.047377
-0.0434347
-0.0448489
-0.0498001
-0.0527705
-0.0471735
-0.0137856
0.0482418
0.179604
-0.0705566
-0.0489439
-0.0445894
-0.0453253
-0.0495521
-0.0519224
-0.046037
-0.0131787
0.0475494
0.177151
-0.0745353
-0.0522115
-0.0469741
-0.0461872
-0.0486931
-0.0495715
-0.0428545
-0.0112981
0.0462895
0.171493
-0.0809351
-0.0569884
-0.050191
-0.0468949
-0.046471
-0.0446733
-0.0358622
-0.00592337
0.045325
0.162499
-0.0886214
-0.0608851
-0.0515838
-0.0458755
-0.0430961
-0.0385593
-0.0260084
0.00488867
0.0517338
0.150901
-0.19896
-0.0736477
-0.0485924
-0.0400372
-0.0356845
-0.0289452
-0.0121165
0.0329781
0.119083
0.324651
-0.186699
-0.0610026
-0.0408503
-0.0366802
-0.0359627
-0.0325456
-0.0181377
0.0297588
0.129528
0.359226
-0.177845
-0.052153
-0.0342549
-0.0331439
-0.0356118
-0.0345905
-0.0211922
0.0297844
0.138779
0.380027
-0.172737
-0.0471394
-0.0302455
-0.0308489
-0.0351644
-0.0354828
-0.0224209
0.0301995
0.143343
0.390007
-0.170492
-0.0449755
-0.0284963
-0.0298275
-0.0349315
-0.0358276
-0.022905
0.0303724
0.145074
0.393801
-0.170492
-0.0449755
-0.0284963
-0.0298275
-0.0349315
-0.0358276
-0.022905
0.0303724
0.145074
0.393801
-0.172737
-0.0471394
-0.0302455
-0.0308488
-0.0351643
-0.0354828
-0.0224209
0.0301996
0.143343
0.390007
-0.177845
-0.052153
-0.0342549
-0.0331438
-0.0356118
-0.0345904
-0.0211922
0.0297844
0.138779
0.380027
-0.186699
-0.0610025
-0.0408502
-0.0366801
-0.0359627
-0.0325455
-0.0181377
0.0297589
0.129528
0.359226
-0.19896
-0.0736476
-0.0485923
-0.0400371
-0.0356844
-0.0289451
-0.0121165
0.0329781
0.119083
0.324651
)
;

boundaryField
{
    top
    {
        type            zeroGradient;
    }
    others
    {
        type            zeroGradient;
    }
}


// ************************************************************************* //
