/*--------------------------------*- C++ -*----------------------------------*\
  =========                 |
  \\      /  F ield         | OpenFOAM: The Open Source CFD Toolbox
   \\    /   O peration     | Website:  https://openfoam.org
    \\  /    A nd           | Version:  9
     \\/     M anipulation  |
\*---------------------------------------------------------------------------*/
FoamFile
{
    format      ascii;
    class       surfaceScalarField;
    location    "0.58";
    object      phi;
}
// * * * * * * * * * * * * * * * * * * * * * * * * * * * * * * * * * * * * * //

dimensions      [0 3 -1 0 0 0 0];

internalField   nonuniform List<scalar> 
2700
(
-6.19873e-08
-1.01057e-07
1.63085e-07
-3.07779e-07
-1.1067e-07
3.56462e-07
-6.29983e-07
-1.10789e-07
4.32992e-07
-9.44939e-07
-1.31795e-07
4.46751e-07
-1.16662e-06
-1.83195e-07
4.04879e-07
-1.19919e-06
-2.59629e-07
2.92195e-07
-9.76849e-07
-3.34659e-07
1.12318e-07
-5.40221e-07
-3.59704e-07
-7.69239e-08
-1.04877e-07
-2.8844e-07
-1.46905e-07
-9.51182e-08
-9.75869e-09
-1.61387e-07
-2.17922e-07
2.78252e-07
-6.86121e-07
-2.86591e-07
7.00656e-07
-1.34592e-06
-3.06281e-07
8.55294e-07
-1.96269e-06
-3.46832e-07
8.3181e-07
-2.36988e-06
-4.28676e-07
6.52672e-07
-2.39593e-06
-5.40731e-07
3.07147e-07
-1.93178e-06
-6.37913e-07
-1.60897e-07
-1.07345e-06
-6.48453e-07
-5.69579e-07
-2.35712e-07
-5.1519e-07
-6.1099e-07
-2.08425e-07
-1.22405e-07
-2.35711e-07
-2.36344e-07
2.54134e-07
-9.45571e-07
-3.34209e-07
7.57478e-07
-1.81847e-06
-3.65293e-07
9.31916e-07
-2.61483e-06
-4.07105e-07
8.56625e-07
-3.11633e-06
-4.82605e-07
5.55436e-07
-3.10726e-06
-5.81659e-07
3.18545e-08
-2.45627e-06
-6.54775e-07
-6.34125e-07
-1.3152e-06
-6.46434e-07
-1.1431e-06
-2.53029e-07
-5.12207e-07
-1.06515e-06
-2.25498e-07
-2.35956e-07
-2.84371e-07
-1.49224e-07
1.97251e-07
-1.11355e-06
-2.17676e-07
7.12647e-07
-2.12149e-06
-2.40045e-07
8.8269e-07
-3.02722e-06
-2.65595e-07
7.64221e-07
-3.57867e-06
-3.08695e-07
3.77542e-07
-3.52248e-06
-3.62609e-07
-2.75241e-07
-2.73459e-06
-4.00302e-07
-1.04237e-06
-1.40868e-06
-3.89484e-07
-1.58285e-06
-2.26984e-07
-3.08564e-07
-1.38534e-06
-1.41402e-07
-3.1108e-07
-3.08838e-07
1.44076e-12
1.59613e-07
-1.19689e-06
1.18855e-12
6.70374e-07
-2.2708e-06
8.91182e-13
8.33864e-07
-3.22825e-06
6.30228e-13
6.91857e-07
-3.79922e-06
5.05324e-13
2.62272e-07
-3.71535e-06
3.4497e-13
-4.46482e-07
-2.85359e-06
2.48744e-13
-1.26206e-06
-1.4365e-06
1.97332e-13
-1.80657e-06
-2.04353e-07
1.81148e-13
-1.54071e-06
1.66391e-13
-3.45755e-07
-3.08838e-07
1.49227e-07
1.59613e-07
-1.19689e-06
2.17678e-07
6.70374e-07
-2.2708e-06
2.40047e-07
8.33864e-07
-3.22825e-06
2.65596e-07
6.91857e-07
-3.79922e-06
3.08696e-07
2.62272e-07
-3.71535e-06
3.6261e-07
-4.46482e-07
-2.85359e-06
4.00302e-07
-1.26206e-06
-1.4365e-06
3.89484e-07
-1.80657e-06
-2.04353e-07
3.08564e-07
-1.54071e-06
1.41402e-07
-3.45755e-07
-2.84371e-07
2.36348e-07
1.97251e-07
-1.11355e-06
3.34212e-07
7.12647e-07
-2.12149e-06
3.65295e-07
8.8269e-07
-3.02722e-06
4.07106e-07
7.64221e-07
-3.57867e-06
4.82606e-07
3.77542e-07
-3.52248e-06
5.8166e-07
-2.75241e-07
-2.73459e-06
6.54776e-07
-1.04237e-06
-1.40868e-06
6.46434e-07
-1.58285e-06
-2.26984e-07
5.12208e-07
-1.38534e-06
2.25498e-07
-3.1108e-07
-2.35713e-07
2.17928e-07
2.54133e-07
-9.45572e-07
2.86595e-07
7.57478e-07
-1.81848e-06
3.06283e-07
9.31916e-07
-2.61483e-06
3.46834e-07
8.56625e-07
-3.11634e-06
4.28677e-07
5.55436e-07
-3.10726e-06
5.40731e-07
3.18545e-08
-2.45627e-06
6.37913e-07
-6.34125e-07
-1.3152e-06
6.48453e-07
-1.1431e-06
-2.53029e-07
5.1519e-07
-1.06515e-06
2.08425e-07
-2.35956e-07
-1.61391e-07
1.01071e-07
2.78248e-07
-6.86124e-07
1.10674e-07
7.00654e-07
-1.34592e-06
1.1079e-07
8.55294e-07
-1.9627e-06
1.31796e-07
8.31809e-07
-2.36989e-06
1.83195e-07
6.52671e-07
-2.39593e-06
2.59629e-07
3.07147e-07
-1.93178e-06
3.34659e-07
-1.60897e-07
-1.07345e-06
3.59705e-07
-5.69579e-07
-2.35712e-07
2.8844e-07
-6.1099e-07
9.51184e-08
-1.22405e-07
-6.20009e-08
1.63072e-07
-3.07786e-07
3.56458e-07
-6.29986e-07
4.32991e-07
-9.44941e-07
4.46751e-07
-1.16662e-06
4.04879e-07
-1.19919e-06
2.92195e-07
-9.7685e-07
1.12318e-07
-5.40221e-07
-7.6924e-08
-1.04877e-07
-1.46905e-07
-9.75849e-09
-2.20872e-07
-2.65544e-07
6.49502e-07
-7.22025e-07
-3.50206e-07
1.20782e-06
-1.32165e-06
-3.65401e-07
1.39802e-06
-1.88929e-06
-3.76724e-07
1.39112e-06
-2.28431e-06
-4.10457e-07
1.21035e-06
-2.35007e-06
-4.67751e-07
8.25699e-07
-1.97251e-06
-5.22122e-07
2.56884e-07
-1.18979e-06
-5.16159e-07
-3.43479e-07
-3.31535e-07
-3.83561e-07
-6.21602e-07
-8.17688e-08
-2.59525e-07
-5.94769e-07
-4.79528e-07
1.08701e-06
-1.79653e-06
-6.91484e-07
2.24369e-06
-3.1719e-06
-7.36761e-07
2.60203e-06
-4.39983e-06
-7.59146e-07
2.44216e-06
-5.17755e-06
-8.10991e-07
1.83093e-06
-5.21375e-06
-8.90529e-07
7.66124e-07
-4.32414e-06
-9.57335e-07
-6.15296e-07
-2.63312e-06
-9.18845e-07
-1.85792e-06
-8.15806e-07
-6.94432e-07
-2.11743e-06
-2.25809e-07
-7.94171e-07
-8.71255e-07
-4.84111e-07
1.12997e-06
-2.56848e-06
-7.31176e-07
2.49439e-06
-4.45814e-06
-7.87919e-07
2.87274e-06
-6.08352e-06
-8.10467e-07
2.53332e-06
-7.03952e-06
-8.5517e-07
1.55561e-06
-6.9843e-06
-9.20957e-07
7.0597e-09
-5.69472e-06
-9.5723e-07
-1.92381e-06
-3.4046e-06
-9.00654e-07
-3.45141e-06
-1.02813e-06
-6.88298e-07
-3.44775e-06
-2.64006e-07
-1.22589e-06
-1.04829e-06
-2.96047e-07
1.05748e-06
-3.06657e-06
-4.57316e-07
2.45707e-06
-5.27755e-06
-4.95403e-07
2.80115e-06
-7.13208e-06
-5.08441e-07
2.31673e-06
-8.16696e-06
-5.31566e-07
1.08882e-06
-8.00149e-06
-5.63969e-07
-7.97699e-07
-6.43248e-06
-5.75694e-07
-2.99291e-06
-3.77052e-06
-5.35649e-07
-4.60983e-06
-1.09227e-06
-4.12473e-07
-4.33941e-06
-1.70483e-07
-1.49688e-06
-1.13404e-06
1.21638e-12
9.97606e-07
-3.30992e-06
8.5965e-13
2.38894e-06
-5.67534e-06
5.85545e-13
2.70388e-06
-7.63353e-06
4.25643e-13
2.1416e-06
-8.69458e-06
3.72052e-13
7.91756e-07
-8.46063e-06
2.94153e-13
-1.24441e-06
-6.74773e-06
2.4009e-13
-3.55065e-06
-3.9099e-06
2.0316e-13
-5.18005e-06
-1.10341e-06
2.03478e-13
-4.75968e-06
2.05922e-13
-1.61964e-06
-1.13404e-06
2.96049e-07
9.97605e-07
-3.30992e-06
4.57318e-07
2.38894e-06
-5.67534e-06
4.95405e-07
2.70388e-06
-7.63353e-06
5.08442e-07
2.1416e-06
-8.69458e-06
5.31567e-07
7.91756e-07
-8.46063e-06
5.6397e-07
-1.24441e-06
-6.74773e-06
5.75694e-07
-3.55065e-06
-3.9099e-06
5.35649e-07
-5.18005e-06
-1.10341e-06
4.12473e-07
-4.75968e-06
1.70484e-07
-1.61964e-06
-1.04829e-06
4.84114e-07
1.05748e-06
-3.06657e-06
7.31178e-07
2.45707e-06
-5.27755e-06
7.8792e-07
2.80115e-06
-7.13208e-06
8.10468e-07
2.31673e-06
-8.16696e-06
8.55171e-07
1.08882e-06
-8.00149e-06
9.20958e-07
-7.97699e-07
-6.43248e-06
9.5723e-07
-2.99291e-06
-3.77052e-06
9.00654e-07
-4.60983e-06
-1.09227e-06
6.88298e-07
-4.33941e-06
2.64006e-07
-1.49688e-06
-8.71255e-07
4.79531e-07
1.12997e-06
-2.56848e-06
6.91485e-07
2.49439e-06
-4.45814e-06
7.36762e-07
2.87274e-06
-6.08352e-06
7.59146e-07
2.53332e-06
-7.03952e-06
8.10991e-07
1.55561e-06
-6.9843e-06
8.90529e-07
7.05965e-09
-5.69472e-06
9.57335e-07
-1.92381e-06
-3.4046e-06
9.18845e-07
-3.45141e-06
-1.02813e-06
6.94433e-07
-3.44775e-06
2.25809e-07
-1.22589e-06
-5.94771e-07
2.65548e-07
1.087e-06
-1.79653e-06
3.50207e-07
2.24369e-06
-3.1719e-06
3.65402e-07
2.60203e-06
-4.39983e-06
3.76724e-07
2.44216e-06
-5.17755e-06
4.10457e-07
1.83093e-06
-5.21375e-06
4.67751e-07
7.66124e-07
-4.32414e-06
5.22122e-07
-6.15296e-07
-2.63312e-06
5.1616e-07
-1.85792e-06
-8.15806e-07
3.83561e-07
-2.11743e-06
8.1769e-08
-7.94171e-07
-2.20876e-07
6.49496e-07
-7.22028e-07
1.20782e-06
-1.32165e-06
1.39802e-06
-1.8893e-06
1.39112e-06
-2.28431e-06
1.21035e-06
-2.35007e-06
8.25699e-07
-1.97251e-06
2.56884e-07
-1.18979e-06
-3.43479e-07
-3.31535e-07
-6.21602e-07
-2.59525e-07
-3.33486e-07
-4.0796e-07
1.39095e-06
-1.00591e-06
-5.4304e-07
2.42329e-06
-1.7855e-06
-5.48789e-07
2.72639e-06
-2.53956e-06
-5.17281e-07
2.66246e-06
-3.11927e-06
-4.94947e-07
2.28501e-06
-3.32634e-06
-5.01908e-07
1.53468e-06
-2.96099e-06
-5.25969e-07
4.17506e-07
-1.9607e-06
-5.20479e-07
-8.23292e-07
-6.6799e-07
-3.90965e-07
-1.52335e-06
-3.95136e-08
-8.88001e-07
-9.43952e-07
-7.01902e-07
2.3249e-06
-2.66041e-06
-1.00767e-06
4.42477e-06
-4.55527e-06
-1.02672e-06
4.97483e-06
-6.25113e-06
-9.59427e-07
4.58017e-06
-7.4022e-06
-8.95268e-07
3.38231e-06
-7.63799e-06
-8.65908e-07
1.36592e-06
-6.63663e-06
-8.54664e-07
-1.28796e-06
-4.3711e-06
-8.10001e-07
-3.83393e-06
-1.5701e-06
-6.22297e-07
-4.6871e-06
-1.54324e-07
-2.24946e-06
-1.41102e-06
-6.87987e-07
2.52708e-06
-3.89499e-06
-1.02762e-06
4.99831e-06
-6.54779e-06
-1.05127e-06
5.55008e-06
-8.80581e-06
-9.73595e-07
4.80551e-06
-1.02045e-05
-8.87486e-07
2.94655e-06
-1.03064e-05
-8.21781e-07
6.48281e-08
-8.78113e-06
-7.7077e-07
-3.53299e-06
-5.68258e-06
-7.09162e-07
-6.65079e-06
-2.00585e-06
-5.58605e-07
-7.18818e-06
-1.89874e-07
-3.19618e-06
-1.71468e-06
-4.13546e-07
2.49772e-06
-4.6973e-06
-6.29972e-07
5.04205e-06
-7.81617e-06
-6.4521e-07
5.51396e-06
-1.03793e-05
-5.93143e-07
4.49942e-06
-1.18571e-05
-5.31201e-07
2.21031e-06
-1.17979e-05
-4.76781e-07
-1.20193e-06
-9.90318e-06
-4.31578e-07
-5.22679e-06
-6.30991e-06
-3.90435e-07
-8.52182e-06
-2.17619e-06
-3.14177e-07
-8.71755e-06
-1.23233e-07
-3.73971e-06
-1.86191e-06
9.64395e-13
2.44597e-06
-5.08744e-06
6.37511e-13
4.9845e-06
-8.42541e-06
3.20011e-13
5.39665e-06
-1.11182e-05
2.0881e-13
4.24127e-06
-1.2608e-05
2.05806e-13
1.75033e-06
-1.24469e-05
1.80317e-13
-1.88223e-06
-1.03663e-05
1.65369e-13
-6.06286e-06
-6.55032e-06
1.63647e-13
-9.38649e-06
-2.22959e-06
1.81482e-13
-9.39459e-06
1.79399e-13
-3.97246e-06
-1.86191e-06
4.13548e-07
2.44597e-06
-5.08744e-06
6.29974e-07
4.9845e-06
-8.42541e-06
6.45211e-07
5.39665e-06
-1.11182e-05
5.93144e-07
4.24127e-06
-1.2608e-05
5.31201e-07
1.75033e-06
-1.24469e-05
4.76782e-07
-1.88223e-06
-1.03663e-05
4.31578e-07
-6.06286e-06
-6.55032e-06
3.90435e-07
-9.38649e-06
-2.22959e-06
3.14177e-07
-9.39459e-06
1.23233e-07
-3.97246e-06
-1.71468e-06
6.87989e-07
2.49772e-06
-4.6973e-06
1.02762e-06
5.04205e-06
-7.81617e-06
1.05127e-06
5.51396e-06
-1.03793e-05
9.73596e-07
4.49942e-06
-1.18571e-05
8.87487e-07
2.21031e-06
-1.17979e-05
8.21782e-07
-1.20193e-06
-9.90318e-06
7.70771e-07
-5.22679e-06
-6.30991e-06
7.09162e-07
-8.52182e-06
-2.17619e-06
5.58605e-07
-8.71755e-06
1.89875e-07
-3.73971e-06
-1.41102e-06
7.01904e-07
2.52708e-06
-3.89499e-06
1.00767e-06
4.99831e-06
-6.54779e-06
1.02672e-06
5.55008e-06
-8.80581e-06
9.59427e-07
4.80551e-06
-1.02045e-05
8.95268e-07
2.94655e-06
-1.03064e-05
8.65908e-07
6.48281e-08
-8.78113e-06
8.54664e-07
-3.53299e-06
-5.68258e-06
8.10001e-07
-6.65079e-06
-2.00585e-06
6.22297e-07
-7.18818e-06
1.54324e-07
-3.19618e-06
-9.43953e-07
4.07962e-07
2.3249e-06
-2.66041e-06
5.43041e-07
4.42477e-06
-4.55527e-06
5.48789e-07
4.97483e-06
-6.25113e-06
5.17281e-07
4.58017e-06
-7.4022e-06
4.94947e-07
3.38231e-06
-7.63799e-06
5.01909e-07
1.36592e-06
-6.63663e-06
5.2597e-07
-1.28796e-06
-4.3711e-06
5.20479e-07
-3.83393e-06
-1.5701e-06
3.90965e-07
-4.6871e-06
3.95137e-08
-2.24946e-06
-3.33487e-07
1.39094e-06
-1.00592e-06
2.42329e-06
-1.7855e-06
2.72639e-06
-2.53956e-06
2.66246e-06
-3.11927e-06
2.28501e-06
-3.32634e-06
1.53468e-06
-2.96099e-06
4.17506e-07
-1.9607e-06
-8.23292e-07
-6.6799e-07
-1.52335e-06
-8.88002e-07
-4.19716e-07
-5.36326e-07
2.34699e-06
-1.21121e-06
-6.96193e-07
3.91098e-06
-2.12013e-06
-6.55036e-07
4.29035e-06
-3.05223e-06
-5.31107e-07
4.12566e-06
-3.88947e-06
-3.9726e-07
3.51951e-06
-4.4026e-06
-3.06707e-07
2.35451e-06
-4.25529e-06
-2.846e-07
5.54791e-07
-3.15304e-06
-3.26964e-07
-1.59857e-06
-1.29882e-06
-3.03576e-07
-3.074e-06
-1.95874e-09
-2.18487e-06
-1.22538e-06
-9.00433e-07
3.91439e-06
-3.3399e-06
-1.25078e-06
7.09387e-06
-5.6395e-06
-1.17069e-06
7.79009e-06
-7.76682e-06
-9.12779e-07
7.08915e-06
-9.40385e-06
-6.15054e-07
5.23714e-06
-1.01244e-05
-3.74625e-07
2.15441e-06
-9.38991e-06
-2.55011e-07
-2.05206e-06
-6.78916e-06
-2.89266e-07
-6.47238e-06
-2.821e-06
-3.2402e-07
-8.63481e-06
-5.4984e-08
-5.01744e-06
-1.85099e-06
-8.6674e-07
4.34438e-06
-4.95492e-06
-1.24614e-06
8.0976e-06
-8.19949e-06
-1.15873e-06
8.78269e-06
-1.10071e-05
-8.72038e-07
7.57237e-06
-1.2944e-05
-5.29768e-07
4.79818e-06
-1.352e-05
-2.30506e-07
4.96695e-07
-1.2215e-05
-6.91577e-08
-5.02383e-06
-8.65265e-06
-9.63575e-08
-1.04061e-05
-3.54135e-06
-1.91465e-07
-1.2432e-05
-7.28808e-08
-6.71963e-06
-2.25797e-06
-5.14849e-07
4.4038e-06
-5.99827e-06
-7.52716e-07
8.28892e-06
-9.8037e-06
-6.95815e-07
8.85648e-06
-1.29429e-05
-5.10149e-07
7.27669e-06
-1.49262e-05
-2.857e-07
3.94962e-06
-1.52944e-05
-8.58194e-08
-9.78458e-07
-1.35769e-05
2.38745e-08
-7.03726e-06
-9.48536e-06
4.58412e-09
-1.27144e-05
-3.83148e-06
-7.43402e-08
-1.44886e-05
-4.60895e-08
-7.59798e-06
-2.45378e-06
7.39874e-13
4.38489e-06
-6.49895e-06
4.3126e-13
8.27695e-06
-1.05579e-05
1.39389e-13
8.7598e-06
-1.38217e-05
6.69778e-14
6.99487e-06
-1.57834e-05
1.05343e-13
3.42636e-06
-1.60151e-05
1.51191e-13
-1.73634e-06
-1.40978e-05
1.74921e-13
-7.9563e-06
-9.78816e-06
2.01985e-13
-1.36915e-05
-3.9306e-06
2.05797e-13
-1.53265e-05
1.56338e-13
-7.94915e-06
-2.45378e-06
5.14851e-07
4.38489e-06
-6.49895e-06
7.52717e-07
8.27695e-06
-1.05579e-05
6.95815e-07
8.7598e-06
-1.38217e-05
5.10149e-07
6.99487e-06
-1.57834e-05
2.85701e-07
3.42636e-06
-1.60151e-05
8.58198e-08
-1.73634e-06
-1.40978e-05
-2.38741e-08
-7.9563e-06
-9.78816e-06
-4.5837e-09
-1.36915e-05
-3.9306e-06
7.43406e-08
-1.53265e-05
4.60898e-08
-7.94915e-06
-2.25797e-06
8.66741e-07
4.4038e-06
-5.99827e-06
1.24614e-06
8.28892e-06
-9.8037e-06
1.15873e-06
8.85648e-06
-1.29429e-05
8.72038e-07
7.27669e-06
-1.49262e-05
5.29769e-07
3.94962e-06
-1.52944e-05
2.30507e-07
-9.78458e-07
-1.35769e-05
6.91581e-08
-7.03726e-06
-9.48536e-06
9.63578e-08
-1.27144e-05
-3.83148e-06
1.91466e-07
-1.44886e-05
7.2881e-08
-7.59798e-06
-1.85099e-06
9.00434e-07
4.34438e-06
-4.95492e-06
1.25078e-06
8.09759e-06
-8.19949e-06
1.17069e-06
8.78269e-06
-1.10071e-05
9.12779e-07
7.57237e-06
-1.2944e-05
6.15054e-07
4.79818e-06
-1.352e-05
3.74626e-07
4.96695e-07
-1.2215e-05
2.55011e-07
-5.02383e-06
-8.65265e-06
2.89266e-07
-1.04061e-05
-3.54135e-06
3.2402e-07
-1.2432e-05
5.49842e-08
-6.71963e-06
-1.22538e-06
5.36327e-07
3.91439e-06
-3.3399e-06
6.96194e-07
7.09387e-06
-5.6395e-06
6.55037e-07
7.79009e-06
-7.76682e-06
5.31107e-07
7.08915e-06
-9.40385e-06
3.97261e-07
5.23714e-06
-1.01244e-05
3.06707e-07
2.15441e-06
-9.38991e-06
2.846e-07
-2.05206e-06
-6.78916e-06
3.26964e-07
-6.47238e-06
-2.821e-06
3.03576e-07
-8.63481e-06
1.95871e-09
-5.01744e-06
-4.19716e-07
2.34699e-06
-1.21121e-06
3.91097e-06
-2.12013e-06
4.29035e-06
-3.05223e-06
4.12566e-06
-3.88947e-06
3.51951e-06
-4.4026e-06
2.35451e-06
-4.25529e-06
5.54791e-07
-3.15304e-06
-1.59857e-06
-1.29882e-06
-3.074e-06
-2.18487e-06
-5.17174e-07
-6.40843e-07
3.50501e-06
-1.37366e-06
-7.92229e-07
5.55969e-06
-2.3331e-06
-6.51997e-07
5.90178e-06
-3.39811e-06
-3.64125e-07
5.55481e-06
-4.54238e-06
-2.17464e-08
4.68553e-06
-5.54378e-06
2.53928e-07
3.10198e-06
-5.90137e-06
3.62692e-07
5.49684e-07
-4.9373e-06
2.23383e-07
-2.78602e-06
-2.44705e-06
-7.03251e-09
-5.55721e-06
6.76517e-09
-4.63868e-06
-1.47596e-06
-1.05415e-06
5.80366e-06
-3.84806e-06
-1.38954e-06
1.00633e-05
-6.37329e-06
-1.11811e-06
1.07814e-05
-8.81297e-06
-5.41414e-07
9.70612e-06
-1.09662e-05
1.35449e-07
7.23322e-06
-1.24216e-05
7.09419e-07
3.15424e-06
-1.24076e-05
9.67056e-07
-2.67036e-06
-9.94324e-06
7.38871e-07
-9.45226e-06
-4.82575e-06
2.25019e-07
-1.39844e-05
7.60876e-09
-9.84403e-06
-2.20471e-06
-9.98747e-07
6.49369e-06
-5.70463e-06
-1.35792e-06
1.15659e-05
-9.26967e-06
-1.06892e-06
1.22985e-05
-1.24178e-05
-4.50984e-07
1.06301e-05
-1.48479e-05
2.71681e-07
7.09201e-06
-1.61187e-05
8.79775e-07
1.59715e-06
-1.55272e-05
1.14419e-06
-5.79242e-06
-1.21326e-05
8.97453e-07
-1.39593e-05
-5.81361e-06
3.40488e-07
-1.88665e-05
1.40495e-08
-1.25397e-05
-2.66905e-06
-5.8691e-07
6.66101e-06
-6.87505e-06
-8.09535e-07
1.19465e-05
-1.10207e-05
-6.2658e-07
1.25598e-05
-1.44526e-05
-2.36728e-07
1.04943e-05
-1.68415e-05
2.16472e-07
6.39375e-06
-1.78069e-05
5.92634e-07
2.74039e-07
-1.68013e-05
7.4229e-07
-7.64098e-06
-1.29668e-05
5.77708e-07
-1.62291e-05
-6.18336e-06
2.29948e-07
-2.11615e-05
1.23768e-08
-1.37797e-05
-2.88766e-06
5.34382e-13
6.68564e-06
-7.4222e-06
2.73065e-13
1.2002e-05
-1.18142e-05
3.13183e-14
1.25252e-05
-1.53258e-05
1.22215e-14
1.02697e-05
-1.76299e-05
1.00845e-13
5.94696e-06
-1.84117e-05
1.72185e-13
-3.61929e-07
-1.72188e-05
2.23631e-13
-8.4069e-06
-1.3237e-05
2.55238e-13
-1.70957e-05
-6.31125e-06
2.14197e-13
-2.20223e-05
1.57613e-13
-1.4248e-05
-2.88766e-06
5.86911e-07
6.68564e-06
-7.4222e-06
8.09536e-07
1.2002e-05
-1.18142e-05
6.2658e-07
1.25252e-05
-1.53258e-05
2.36728e-07
1.02697e-05
-1.76299e-05
-2.16471e-07
5.94696e-06
-1.84117e-05
-5.92633e-07
-3.61929e-07
-1.72188e-05
-7.4229e-07
-8.4069e-06
-1.3237e-05
-5.77708e-07
-1.70957e-05
-6.31125e-06
-2.29947e-07
-2.20223e-05
-1.23765e-08
-1.4248e-05
-2.66905e-06
9.98748e-07
6.66101e-06
-6.87505e-06
1.35792e-06
1.19465e-05
-1.10207e-05
1.06892e-06
1.25598e-05
-1.44526e-05
4.50985e-07
1.04943e-05
-1.68415e-05
-2.7168e-07
6.39375e-06
-1.78069e-05
-8.79774e-07
2.74039e-07
-1.68013e-05
-1.14419e-06
-7.64098e-06
-1.29668e-05
-8.97453e-07
-1.62291e-05
-6.18336e-06
-3.40487e-07
-2.11615e-05
-1.40493e-08
-1.37797e-05
-2.20471e-06
1.05415e-06
6.49369e-06
-5.70463e-06
1.38954e-06
1.15659e-05
-9.26967e-06
1.11811e-06
1.22985e-05
-1.24178e-05
5.41414e-07
1.06301e-05
-1.48479e-05
-1.35449e-07
7.09201e-06
-1.61187e-05
-7.09419e-07
1.59715e-06
-1.55272e-05
-9.67055e-07
-5.79242e-06
-1.21326e-05
-7.38871e-07
-1.39593e-05
-5.81361e-06
-2.25019e-07
-1.88665e-05
-7.60849e-09
-1.25397e-05
-1.47596e-06
6.40843e-07
5.80366e-06
-3.84806e-06
7.92229e-07
1.00633e-05
-6.37329e-06
6.51997e-07
1.07814e-05
-8.81297e-06
3.64126e-07
9.70612e-06
-1.09662e-05
2.17466e-08
7.23322e-06
-1.24216e-05
-2.53928e-07
3.15424e-06
-1.24076e-05
-3.62692e-07
-2.67036e-06
-9.94324e-06
-2.23383e-07
-9.45226e-06
-4.82575e-06
7.03259e-09
-1.39844e-05
-6.76529e-09
-9.84403e-06
-5.17174e-07
3.50501e-06
-1.37366e-06
5.55969e-06
-2.3331e-06
5.90178e-06
-3.39811e-06
5.55481e-06
-4.54238e-06
4.68553e-06
-5.54378e-06
3.10198e-06
-5.90137e-06
5.49684e-07
-4.9373e-06
-2.78602e-06
-2.44705e-06
-5.55721e-06
-4.63868e-06
-7.13541e-07
-7.22731e-07
4.94128e-06
-1.55522e-06
-8.2238e-07
7.22375e-06
-2.39814e-06
-5.21708e-07
7.26641e-06
-3.44072e-06
1.64947e-08
6.5809e-06
-4.81851e-06
6.46746e-07
5.41657e-06
-6.41098e-06
1.21573e-06
3.47872e-06
-7.59662e-06
1.49005e-06
2.45281e-07
-7.21795e-06
1.2076e-06
-4.3723e-06
-4.27261e-06
4.87367e-07
-8.98992e-06
-6.42796e-08
-8.84701e-06
-1.77658e-06
-1.15833e-06
8.01583e-06
-4.19274e-06
-1.41451e-06
1.30716e-05
-6.57885e-06
-8.62354e-07
1.35082e-05
-8.94729e-06
1.42458e-07
1.19486e-05
-1.13445e-05
1.30965e-06
8.96752e-06
-1.34963e-05
2.31117e-06
4.21062e-06
-1.45572e-05
2.73505e-06
-2.85444e-06
-1.29819e-05
2.20745e-06
-1.20274e-05
-7.4035e-06
9.42568e-07
-2.0018e-05
-5.84326e-08
-1.72534e-05
-2.52154e-06
-1.07703e-06
8.93393e-06
-6.07493e-06
-1.35824e-06
1.5063e-05
-9.44796e-06
-7.93883e-07
1.56031e-05
-1.23993e-05
2.34379e-07
1.34895e-05
-1.48855e-05
1.40036e-06
9.48753e-06
-1.66718e-05
2.34839e-06
3.34621e-06
-1.70967e-05
2.66623e-06
-5.29875e-06
-1.47789e-05
2.0751e-06
-1.61447e-05
-8.34851e-06
8.6785e-07
-2.52222e-05
-2.88295e-08
-2.09178e-05
-2.9735e-06
-6.25173e-07
9.18265e-06
-7.20632e-06
-7.99714e-07
1.56208e-05
-1.10821e-05
-4.52168e-07
1.60939e-05
-1.41807e-05
1.78002e-07
1.36493e-05
-1.6453e-05
8.77988e-07
9.18843e-06
-1.78022e-05
1.42017e-06
2.55138e-06
-1.77996e-05
1.56513e-06
-6.54245e-06
-1.52305e-05
1.17949e-06
-1.79026e-05
-8.64411e-06
4.80003e-07
-2.736e-05
-7.98364e-09
-2.24446e-05
-3.17797e-06
3.48727e-13
9.23844e-06
-7.71308e-06
1.12846e-13
1.57374e-05
-1.17817e-05
-7.20994e-14
1.61417e-05
-1.48796e-05
-5.7151e-14
1.35457e-05
-1.69823e-05
4.41459e-14
8.92759e-06
-1.80931e-05
1.72531e-13
2.16906e-06
-1.79298e-05
2.57881e-13
-7.00505e-06
-1.53315e-05
2.64239e-13
-1.85146e-05
-8.75213e-06
2.00923e-13
-2.81216e-05
1.44329e-13
-2.30081e-05
-3.17797e-06
6.25174e-07
9.23844e-06
-7.71308e-06
7.99714e-07
1.57374e-05
-1.17817e-05
4.52168e-07
1.61417e-05
-1.48796e-05
-1.78002e-07
1.35457e-05
-1.69823e-05
-8.77988e-07
8.92759e-06
-1.80931e-05
-1.42017e-06
2.16906e-06
-1.79298e-05
-1.56513e-06
-7.00505e-06
-1.53315e-05
-1.17949e-06
-1.85146e-05
-8.75213e-06
-4.80002e-07
-2.81216e-05
7.98388e-09
-2.30081e-05
-2.9735e-06
1.07703e-06
9.18265e-06
-7.20632e-06
1.35824e-06
1.56208e-05
-1.10821e-05
7.93883e-07
1.60939e-05
-1.41807e-05
-2.34379e-07
1.36493e-05
-1.6453e-05
-1.40036e-06
9.18843e-06
-1.78022e-05
-2.34839e-06
2.55138e-06
-1.77996e-05
-2.66623e-06
-6.54245e-06
-1.52305e-05
-2.0751e-06
-1.79026e-05
-8.64411e-06
-8.67849e-07
-2.736e-05
2.88297e-08
-2.24446e-05
-2.52154e-06
1.15833e-06
8.93393e-06
-6.07493e-06
1.41451e-06
1.5063e-05
-9.44796e-06
8.62354e-07
1.56031e-05
-1.23993e-05
-1.42458e-07
1.34895e-05
-1.48855e-05
-1.30965e-06
9.48753e-06
-1.66718e-05
-2.31117e-06
3.34621e-06
-1.70967e-05
-2.73505e-06
-5.29875e-06
-1.47789e-05
-2.20744e-06
-1.61447e-05
-8.34851e-06
-9.42568e-07
-2.52222e-05
5.84328e-08
-2.09178e-05
-1.77658e-06
7.22731e-07
8.01583e-06
-4.19274e-06
8.2238e-07
1.30716e-05
-6.57885e-06
5.21708e-07
1.35082e-05
-8.94729e-06
-1.64944e-08
1.19486e-05
-1.13445e-05
-6.46746e-07
8.96752e-06
-1.34963e-05
-1.21573e-06
4.21062e-06
-1.45572e-05
-1.49005e-06
-2.85444e-06
-1.29819e-05
-1.2076e-06
-1.20274e-05
-7.4035e-06
-4.87367e-07
-2.0018e-05
6.42795e-08
-1.72534e-05
-7.13542e-07
4.94128e-06
-1.55522e-06
7.22375e-06
-2.39814e-06
7.26641e-06
-3.44072e-06
6.5809e-06
-4.81851e-06
5.41657e-06
-6.41098e-06
3.47872e-06
-7.59662e-06
2.45281e-07
-7.21795e-06
-4.3723e-06
-4.27261e-06
-8.98992e-06
-8.84701e-06
-1.24909e-06
-8.30162e-07
7.02053e-06
-1.88716e-06
-8.42896e-07
8.70472e-06
-2.25579e-06
-3.35643e-07
7.97067e-06
-2.88517e-06
4.89598e-07
6.72068e-06
-4.16758e-06
1.46392e-06
5.23507e-06
-6.1897e-06
2.4041e-06
3.09674e-06
-8.41498e-06
2.95367e-06
-4.83106e-07
-9.21523e-06
2.58004e-06
-6.15209e-06
-6.49651e-06
1.20594e-06
-1.29146e-05
-2.88431e-07
-1.50551e-05
-2.42166e-06
-1.26277e-06
1.08701e-05
-4.48471e-06
-1.4069e-06
1.56986e-05
-6.02532e-06
-5.4053e-07
1.52537e-05
-7.49083e-06
8.89335e-07
1.30144e-05
-9.29771e-06
2.52424e-06
9.71408e-06
-1.15112e-05
3.95066e-06
4.87759e-06
-1.35451e-05
4.58177e-06
-2.44871e-06
-1.36668e-05
3.75658e-06
-1.30822e-05
-9.28653e-06
1.58846e-06
-2.47808e-05
-4.07425e-07
-2.64209e-05
-3.06795e-06
-1.13731e-06
1.18764e-05
-6.13072e-06
-1.31781e-06
1.80367e-05
-8.43078e-06
-4.76148e-07
1.78388e-05
-1.01638e-05
9.09779e-07
1.52021e-05
-1.16743e-05
2.43727e-06
1.1085e-05
-1.31425e-05
3.65676e-06
5.10832e-06
-1.43179e-05
4.0272e-06
-3.56879e-06
-1.39213e-05
3.09512e-06
-1.58799e-05
-9.48049e-06
1.17772e-06
-2.92522e-05
-3.28895e-07
-3.04768e-05
-3.42525e-06
-6.4786e-07
1.21184e-05
-7.04179e-06
-7.63903e-07
1.86835e-05
-9.6845e-06
-2.61262e-07
1.85217e-05
-1.1381e-05
5.61991e-07
1.56936e-05
-1.24847e-05
1.44332e-06
1.12862e-05
-1.33568e-05
2.10229e-06
4.9779e-06
-1.40607e-05
2.23389e-06
-4.04523e-06
-1.36082e-05
1.63917e-06
-1.68991e-05
-9.44691e-06
5.79826e-07
-3.09234e-05
-1.66705e-07
-3.20537e-05
-3.57609e-06
2.32551e-13
1.21667e-05
-7.42266e-06
1.70845e-14
1.882e-05
-1.01761e-05
-1.22331e-13
1.86339e-05
-1.17912e-05
-9.0048e-14
1.57227e-05
-1.26564e-05
3.84925e-14
1.12361e-05
-1.32574e-05
1.82039e-13
4.87241e-06
-1.38211e-05
2.46411e-13
-4.20752e-06
-1.34504e-05
2.42717e-13
-1.72461e-05
-9.46358e-06
1.9134e-13
-3.15286e-05
1.5736e-13
-3.26384e-05
-3.57609e-06
6.4786e-07
1.21667e-05
-7.42266e-06
7.63904e-07
1.882e-05
-1.01761e-05
2.61262e-07
1.86339e-05
-1.17912e-05
-5.61991e-07
1.57227e-05
-1.26564e-05
-1.44332e-06
1.12361e-05
-1.32574e-05
-2.10229e-06
4.87241e-06
-1.38211e-05
-2.23389e-06
-4.20752e-06
-1.34504e-05
-1.63917e-06
-1.72461e-05
-9.46358e-06
-5.79825e-07
-3.15286e-05
1.66705e-07
-3.26384e-05
-3.42525e-06
1.13731e-06
1.21184e-05
-7.04179e-06
1.31781e-06
1.86835e-05
-9.6845e-06
4.76148e-07
1.85217e-05
-1.1381e-05
-9.09779e-07
1.56936e-05
-1.24847e-05
-2.43727e-06
1.12862e-05
-1.33568e-05
-3.65676e-06
4.9779e-06
-1.40607e-05
-4.0272e-06
-4.04523e-06
-1.36082e-05
-3.09512e-06
-1.68991e-05
-9.44691e-06
-1.17771e-06
-3.09234e-05
3.28895e-07
-3.20537e-05
-3.06795e-06
1.26277e-06
1.18764e-05
-6.13072e-06
1.4069e-06
1.80367e-05
-8.43078e-06
5.4053e-07
1.78388e-05
-1.01638e-05
-8.89335e-07
1.52021e-05
-1.16743e-05
-2.52424e-06
1.1085e-05
-1.31425e-05
-3.95066e-06
5.10832e-06
-1.43179e-05
-4.58176e-06
-3.56879e-06
-1.39213e-05
-3.75658e-06
-1.58799e-05
-9.48049e-06
-1.58846e-06
-2.92522e-05
4.07425e-07
-3.04768e-05
-2.42166e-06
8.30162e-07
1.08701e-05
-4.48471e-06
8.42897e-07
1.56986e-05
-6.02532e-06
3.35643e-07
1.52537e-05
-7.49084e-06
-4.89598e-07
1.30144e-05
-9.29771e-06
-1.46392e-06
9.71407e-06
-1.15112e-05
-2.4041e-06
4.87759e-06
-1.35451e-05
-2.95367e-06
-2.44871e-06
-1.36668e-05
-2.58004e-06
-1.30822e-05
-9.28653e-06
-1.20594e-06
-2.47808e-05
2.8843e-07
-2.64209e-05
-1.24909e-06
7.02053e-06
-1.88716e-06
8.70472e-06
-2.25579e-06
7.97067e-06
-2.88517e-06
6.72068e-06
-4.16758e-06
5.23507e-06
-6.1897e-06
3.09674e-06
-8.41498e-06
-4.83106e-07
-9.21523e-06
-6.15209e-06
-6.49651e-06
-1.29146e-05
-1.50551e-05
-2.49281e-06
-1.08924e-06
1.06026e-05
-2.28355e-06
-1.07994e-06
9.5754e-06
-1.35359e-06
-4.03777e-07
7.44449e-06
-7.94824e-07
6.49056e-07
5.51286e-06
-1.26279e-06
1.87878e-06
3.82426e-06
-3.09918e-06
3.12283e-06
1.81029e-06
-6.15209e-06
4.02234e-06
-1.45254e-06
-8.67861e-06
3.69447e-06
-7.32003e-06
-7.6668e-06
1.64294e-06
-1.55693e-05
-9.96868e-07
-2.1725e-05
-4.0718e-06
-1.52963e-06
1.53823e-05
-4.78785e-06
-1.66381e-06
1.69985e-05
-4.02459e-06
-6.21459e-07
1.47081e-05
-3.0641e-06
1.01299e-06
1.16899e-05
-2.77782e-06
2.87161e-06
8.43497e-06
-3.66937e-06
4.5599e-06
4.33207e-06
-5.80602e-06
5.49908e-06
-1.7888e-06
-8.09373e-06
4.62913e-06
-1.17292e-05
-7.46135e-06
1.66258e-06
-2.54328e-05
-1.35434e-06
-3.35248e-05
-4.69562e-06
-1.29899e-06
1.63414e-05
-6.13043e-06
-1.47467e-06
1.92824e-05
-5.71289e-06
-5.21706e-07
1.73215e-05
-4.54845e-06
9.62359e-07
1.40883e-05
-3.47086e-06
2.5767e-06
1.03024e-05
-3.13414e-06
3.91874e-06
5.41275e-06
-3.99551e-06
4.47349e-06
-1.68183e-06
-5.85442e-06
3.49349e-06
-1.28854e-05
-6.04153e-06
1.06129e-06
-2.84638e-05
-9.95019e-07
-3.68777e-05
-4.95806e-06
-7.14314e-07
1.64918e-05
-6.75669e-06
-8.2695e-07
1.98344e-05
-6.48824e-06
-2.76849e-07
1.80084e-05
-5.1442e-06
5.72008e-07
1.47399e-05
-3.56979e-06
1.46695e-06
1.08215e-05
-2.56591e-06
2.16437e-06
5.72839e-06
-2.87649e-06
2.383e-06
-1.64415e-06
-4.76338e-06
1.77185e-06
-1.32906e-05
-5.5459e-06
4.88264e-07
-2.95678e-05
-4.74007e-07
-3.81206e-05
-5.04811e-06
1.79681e-13
1.65005e-05
-6.97862e-06
2.09971e-15
1.99236e-05
-6.74124e-06
-1.01495e-13
1.81196e-05
-5.28694e-06
-1.01772e-13
1.48404e-05
-3.48782e-06
1.60713e-14
1.09039e-05
-2.23796e-06
1.49991e-13
5.78692e-06
-2.41411e-06
2.11987e-13
-1.64837e-06
-4.42974e-06
2.11519e-13
-1.34586e-05
-5.47534e-06
1.87436e-13
-2.99947e-05
1.73199e-13
-3.85878e-05
-5.04811e-06
7.14314e-07
1.65005e-05
-6.97862e-06
8.2695e-07
1.99236e-05
-6.74124e-06
2.76849e-07
1.81196e-05
-5.28694e-06
-5.72009e-07
1.48404e-05
-3.48782e-06
-1.46695e-06
1.09039e-05
-2.23796e-06
-2.16437e-06
5.78692e-06
-2.41411e-06
-2.383e-06
-1.64837e-06
-4.42974e-06
-1.77185e-06
-1.34586e-05
-5.47534e-06
-4.88264e-07
-2.99947e-05
4.74007e-07
-3.85878e-05
-4.95806e-06
1.29899e-06
1.64918e-05
-6.75669e-06
1.47467e-06
1.98344e-05
-6.48824e-06
5.21706e-07
1.80084e-05
-5.1442e-06
-9.62359e-07
1.47399e-05
-3.56979e-06
-2.5767e-06
1.08215e-05
-2.56591e-06
-3.91874e-06
5.72839e-06
-2.87649e-06
-4.47349e-06
-1.64415e-06
-4.76338e-06
-3.49349e-06
-1.32906e-05
-5.5459e-06
-1.06129e-06
-2.95678e-05
9.95019e-07
-3.81206e-05
-4.69562e-06
1.52963e-06
1.63414e-05
-6.13043e-06
1.66381e-06
1.92824e-05
-5.71289e-06
6.21459e-07
1.73215e-05
-4.54845e-06
-1.01299e-06
1.40883e-05
-3.47086e-06
-2.87161e-06
1.03024e-05
-3.13414e-06
-4.5599e-06
5.41275e-06
-3.99551e-06
-5.49908e-06
-1.68183e-06
-5.85442e-06
-4.62913e-06
-1.28854e-05
-6.04153e-06
-1.66258e-06
-2.84638e-05
1.35434e-06
-3.68777e-05
-4.0718e-06
1.08924e-06
1.53823e-05
-4.78785e-06
1.07994e-06
1.69985e-05
-4.02459e-06
4.03777e-07
1.47081e-05
-3.0641e-06
-6.49055e-07
1.16899e-05
-2.77783e-06
-1.87878e-06
8.43497e-06
-3.66937e-06
-3.12283e-06
4.33207e-06
-5.80602e-06
-4.02234e-06
-1.7888e-06
-8.09373e-06
-3.69447e-06
-1.17292e-05
-7.46135e-06
-1.64294e-06
-2.54328e-05
9.96868e-07
-3.35248e-05
-2.49281e-06
1.06026e-05
-2.28355e-06
9.5754e-06
-1.35359e-06
7.44449e-06
-7.94824e-07
5.51285e-06
-1.26279e-06
3.82426e-06
-3.09918e-06
1.81029e-06
-6.15209e-06
-1.45254e-06
-8.67861e-06
-7.32003e-06
-7.6668e-06
-1.55693e-05
-2.1725e-05
-2.68097e-06
-1.85665e-06
1.51402e-05
4.76898e-07
-1.97533e-06
8.39286e-06
4.49669e-06
-1.19441e-06
4.6191e-06
7.35719e-06
-1.475e-07
2.79985e-06
8.55722e-06
1.08922e-06
1.53501e-06
7.64741e-06
2.37947e-06
3.40623e-07
4.3484e-06
3.55867e-06
-1.71219e-06
-6.17775e-07
3.47031e-06
-5.82417e-06
-3.47179e-06
9.31764e-07
-1.36471e-05
-2.70242e-06
-2.24944e-05
-4.79681e-06
-2.22698e-06
2.05494e-05
-8.39912e-07
-2.66529e-06
1.37316e-05
5.04334e-06
-1.76871e-06
9.39916e-06
1.018e-05
-3.10697e-07
6.71644e-06
1.38659e-05
1.35694e-06
4.48137e-06
1.54058e-05
3.00625e-06
2.16541e-06
1.3978e-05
4.2898e-06
-1.0921e-06
9.27161e-06
3.87317e-06
-7.42565e-06
3.07314e-06
7.32156e-07
-1.90347e-05
-2.73642e-06
-3.04177e-05
-5.56632e-06
-1.70205e-06
2.13828e-05
-1.8158e-06
-2.16319e-06
1.50297e-05
4.21771e-06
-1.451e-06
1.09703e-05
1.00289e-05
-2.60298e-07
8.2267e-06
1.48492e-05
1.08853e-06
5.7505e-06
1.78696e-05
2.35163e-06
3.04695e-06
1.78305e-05
3.21721e-06
-5.70195e-07
1.36436e-05
2.78298e-06
-7.60828e-06
5.68348e-06
4.6911e-07
-2.02406e-05
-1.70855e-06
-3.2222e-05
-5.76171e-06
-8.82929e-07
2.14344e-05
-2.1562e-06
-1.15167e-06
1.52173e-05
3.87194e-06
-7.6468e-07
1.12939e-05
9.88819e-06
-1.25718e-07
8.58905e-06
1.512e-05
5.89892e-07
6.08837e-06
1.86689e-05
1.23639e-06
3.29469e-06
1.90345e-05
1.6402e-06