/*--------------------------------*- C++ -*----------------------------------*\
  =========                 |
  \\      /  F ield         | OpenFOAM: The Open Source CFD Toolbox
   \\    /   O peration     | Website:  https://openfoam.org
    \\  /    A nd           | Version:  9
     \\/     M anipulation  |
\*---------------------------------------------------------------------------*/
FoamFile
{
    format      ascii;
    class       volVectorField;
    location    "0.04";
    object      U;
}
// * * * * * * * * * * * * * * * * * * * * * * * * * * * * * * * * * * * * * //

dimensions      [0 1 -1 0 0 0 0];

internalField   nonuniform List<vector> 
8000
(
(0.211645 -0.00215211 0.102367)
(0.252261 -0.00859644 0.0672752)
(0.349888 -0.0081617 0.0319973)
(0.407283 -0.00606095 0.0148781)
(0.436919 -0.00429438 0.00687102)
(0.453891 -0.00294574 0.00313093)
(0.463966 -0.00194307 0.0014073)
(0.469878 -0.00120721 0.000601555)
(0.47314 -0.000649112 0.000200515)
(0.474534 -0.000192036 -3.20303e-05)
(0.474392 0.000225594 -0.000213214)
(0.472739 0.00066273 -0.000437091)
(0.469298 0.00117698 -0.000810506)
(0.463359 0.00183724 -0.00154724)
(0.453487 0.00272087 -0.00312964)
(0.436971 0.00387738 -0.00665374)
(0.408162 0.00527267 -0.0145064)
(0.351941 0.00670133 -0.0318731)
(0.253791 0.00634337 -0.0681813)
(0.213299 -0.000409399 -0.103924)
(0.273789 -0.00631529 0.146284)
(0.354067 -0.0187481 0.111672)
(0.504021 -0.0187468 0.0606746)
(0.596283 -0.0149762 0.0317614)
(0.646958 -0.0112168 0.0165528)
(0.677331 -0.00802191 0.00868366)
(0.696065 -0.00545856 0.0046343)
(0.707503 -0.00345186 0.00248059)
(0.71413 -0.00185113 0.00123782)
(0.717264 -0.000501757 0.000407749)
(0.717498 0.000733266 -0.000287979)
(0.714908 0.00198495 -0.001063)
(0.709072 0.00337937 -0.00216542)
(0.698876 0.0050503 -0.00403056)
(0.682046 0.00712286 -0.00755661)
(0.654312 0.00962668 -0.0146452)
(0.607044 0.012352 -0.029122)
(0.517941 0.0146578 -0.0582443)
(0.365116 0.0132728 -0.111561)
(0.27979 0.00100022 -0.148117)
(0.28209 -0.00849425 0.155967)
(0.374227 -0.0189034 0.124899)
(0.541304 -0.0202038 0.0712254)
(0.645764 -0.0176367 0.0391153)
(0.704587 -0.0141104 0.0214003)
(0.740595 -0.0105982 0.0118144)
(0.763224 -0.00747199 0.00664359)
(0.77733 -0.00481687 0.00374689)
(0.785728 -0.00256737 0.00198239)
(0.789923 -0.000604988 0.000749083)
(0.790602 0.00119835 -0.000302295)
(0.787866 0.00296813 -0.00144102)
(0.781242 0.00482075 -0.00297541)
(0.76947 0.00685472 -0.00542499)
(0.749961 0.00911946 -0.00982817)
(0.717849 0.0115244 -0.0183267)
(0.663499 0.0136882 -0.0350925)
(0.562459 0.0147719 -0.0676073)
(0.390526 0.0125166 -0.124402)
(0.290027 0.00336469 -0.158271)
(0.282888 -0.00789771 0.157824)
(0.378361 -0.0155663 0.128379)
(0.551588 -0.0174025 0.074607)
(0.660992 -0.0161358 0.0418574)
(0.72339 -0.0135624 0.02344)
(0.761979 -0.0105916 0.0132647)
(0.786458 -0.0076847 0.00764408)
(0.801889 -0.00503311 0.00440806)
(0.81122 -0.00266857 0.00237885)
(0.816031 -0.000545072 0.000925851)
(0.817042 0.00141398 -0.000323469)
(0.814356 0.00329027 -0.00165842)
(0.807465 0.00515496 -0.00340665)
(0.795027 0.00704927 -0.00611286)
(0.77429 0.00895286 -0.0108539)
(0.740102 0.0107202 -0.0198311)
(0.68242 0.0119892 -0.0372825)
(0.576142 0.0121035 -0.0706549)
(0.396776 0.00984474 -0.127989)
(0.291442 0.0037664 -0.160493)
(0.282813 -0.00629516 0.157949)
(0.379312 -0.0119462 0.129059)
(0.554991 -0.0137269 0.0754895)
(0.666657 -0.0132281 0.0427144)
(0.730813 -0.0115172 0.024166)
(0.770703 -0.00926379 0.0138323)
(0.796128 -0.00687243 0.00806172)
(0.812245 -0.00455754 0.00469319)
(0.82207 -0.00240478 0.00254794)
(0.827223 -0.000424632 0.00099137)
(0.828437 0.00140929 -0.000353364)
(0.825807 0.00313383 -0.00178024)
(0.818797 0.00477796 -0.00362031)
(0.806011 0.00634278 -0.00642294)
(0.7846 0.00777758 -0.0112724)
(0.749271 0.00894428 -0.0203824)
(0.689822 0.00957702 -0.0380005)
(0.580994 0.00926339 -0.0715452)
(0.398482 0.00738349 -0.128884)
(0.291518 0.00324497 -0.160855)
(0.282723 -0.00468665 0.157771)
(0.379612 -0.00882931 0.129026)
(0.556393 -0.0103247 0.0755961)
(0.669201 -0.0102009 0.042893)
(0.734304 -0.00910342 0.0243589)
(0.774914 -0.00748191 0.0140052)
(0.800861 -0.00564363 0.00819824)
(0.81735 -0.00377816 0.00478731)
(0.827439 -0.001985 0.00259842)
(0.832772 -0.000303889 0.000999361)
(0.83409 0.00125884 -0.000385413)
(0.83148 0.00270901 -0.00184949)
(0.824388 0.00404843 -0.00372266)
(0.811377 0.00525887 -0.00655348)
(0.789546 0.00628646 -0.0114264)
(0.753537 0.00702429 -0.0205572)
(0.693094 0.00729876 -0.0381956)
(0.582955 0.00687136 -0.071751)
(0.399017 0.0054212 -0.129037)
(0.291445 0.00253349 -0.160824)
(0.282687 -0.00332028 0.157599)
(0.37977 -0.006273 0.128867)
(0.557103 -0.00742234 0.0755077)
(0.67053 -0.00745324 0.0428635)
(0.73618 -0.00676407 0.0243643)
(0.777213 -0.00564447 0.0140244)
(0.803465 -0.00430916 0.00821762)
(0.820165 -0.00290496 0.00479866)
(0.830396 -0.00152112 0.00259754)
(0.835817 -0.000204749 0.000984691)
(0.837177 0.00102295 -0.000413391)
(0.834559 0.00215186 -0.00188894)
(0.827392 0.00317094 -0.00376996)
(0.81422 0.00405697 -0.00660354)
(0.792113 0.00476523 -0.0114735)
(0.755685 0.00522174 -0.0205961)
(0.69467 0.00532017 -0.0382232)
(0.583837 0.00492635 -0.0717629)
(0.399218 0.00386572 -0.129013)
(0.291391 0.00185921 -0.160742)
(0.282681 -0.00219448 0.157481)
(0.379879 -0.00416903 0.128729)
(0.55751 -0.00497211 0.0754019)
(0.671289 -0.00504449 0.0427929)
(0.737261 -0.00462858 0.0243204)
(0.77855 -0.00390217 0.0139969)
(0.804985 -0.00300383 0.00819827)
(0.821807 -0.00203502 0.00478212)
(0.832113 -0.0010632 0.00258057)
(0.837574 -0.000129056 0.000965778)
(0.838943 0.000744494 -0.000434278)
(0.836302 0.00154304 -0.00191076)
(0.829072 0.00225281 -0.00379039)
(0.815785 0.00285364 -0.00661934)
(0.793496 0.00331376 -0.011481)
(0.756812 0.00358647 -0.0205924)
(0.695468 0.00361018 -0.038207)
(0.584263 0.003311 -0.0717335)
(0.399308 0.00259087 -0.128965)
(0.291363 0.00126296 -0.16068)
(0.282684 -0.00124656 0.157412)
(0.379952 -0.00237993 0.12864)
(0.557746 -0.00285247 0.0753255)
(0.671719 -0.00291168 0.0427348)
(0.737873 -0.00268929 0.0242782)
(0.77931 -0.0022815 0.0139659)
(0.805851 -0.0017654 0.00817462)
(0.82274 -0.00119983 0.00476289)
(0.833085 -0.00062607 0.00256394)
(0.838562 -7.08139e-05 0.000950839)
(0.839927 0.000449408 -0.000447625)
(0.837263 0.000923334 -0.00192199)
(0.829986 0.00134063 -0.00379828)
(0.816624 0.00168811 -0.00662221)
(0.794225 0.00194714 -0.0114771)
(0.757393 0.00209234 -0.0205806)
(0.69587 0.00209193 -0.0381871)
(0.584472 0.00190877 -0.0717063)
(0.399351 0.00149157 -0.12893)
(0.29135 0.000731532 -0.160642)
(0.282688 -0.000403958 0.157381)
(0.379989 -0.00077341 0.128598)
(0.557856 -0.000929204 0.0752873)
(0.671917 -0.000951189 0.0427042)
(0.738154 -0.000881256 0.0242547)
(0.779658 -0.000749861 0.0139479)
(0.806248 -0.000581687 0.00816047)
(0.823168 -0.000395959 0.00475146)
(0.833528 -0.000206507 0.00255447)
(0.83901 -2.25549e-05 0.000942932)
(0.840371 0.000149961 -0.000454024)
(0.837693 0.000306879 -0.00192666)
(0.830392 0.000444439 -0.00380074)
(0.816992 0.000558102 -0.00662179)
(0.794541 0.000641754 -0.0114732)
(0.757641 0.000687372 -0.0205728)
(0.696039 0.000685171 -0.0381756)
(0.584559 0.000623805 -0.0716917)
(0.39937 0.000487188 -0.128912)
(0.291346 0.000239501 -0.160625)
(0.282688 0.000404044 0.157381)
(0.379989 0.000773503 0.128598)
(0.557856 0.000929304 0.0752873)
(0.671917 0.000951285 0.0427042)
(0.738154 0.000881339 0.0242547)
(0.779658 0.000749925 0.0139479)
(0.806247 0.000581729 0.00816047)
(0.823168 0.000395978 0.00475146)
(0.833528 0.000206503 0.00255447)
(0.83901 2.25313e-05 0.000942932)
(0.840371 -0.000150001 -0.000454023)
(0.837693 -0.000306934 -0.00192666)
(0.830392 -0.000444505 -0.00380074)
(0.816992 -0.000558175 -0.00662178)
(0.794541 -0.000641833 -0.0114732)
(0.757641 -0.000687455 -0.0205728)
(0.696039 -0.000685256 -0.0381756)
(0.584559 -0.000623884 -0.0716917)
(0.39937 -0.000487257 -0.128912)
(0.291346 -0.000239532 -0.160625)
(0.282684 0.00124664 0.157412)
(0.379952 0.00238002 0.12864)
(0.557746 0.00285257 0.0753255)
(0.671719 0.00291178 0.0427348)
(0.737873 0.00268937 0.0242782)
(0.77931 0.00228156 0.0139659)
(0.805851 0.00176544 0.00817462)
(0.82274 0.00119985 0.00476289)
(0.833084 0.00062607 0.00256394)
(0.838562 7.07945e-05 0.000950842)
(0.839927 -0.000449444 -0.00044762)
(0.837263 -0.000923385 -0.00192198)
(0.829986 -0.00134069 -0.00379828)
(0.816624 -0.00168818 -0.00662221)
(0.794225 -0.00194722 -0.0114771)
(0.757393 -0.00209242 -0.0205806)
(0.69587 -0.00209201 -0.0381871)
(0.584472 -0.00190885 -0.0717063)
(0.399351 -0.00149164 -0.12893)
(0.29135 -0.000731563 -0.160642)
(0.282681 0.00219457 0.157481)
(0.379879 0.00416912 0.128729)
(0.55751 0.0049722 0.0754019)
(0.671289 0.00504458 0.0427929)
(0.73726 0.00462866 0.0243204)
(0.77855 0.00390223 0.0139969)
(0.804985 0.00300387 0.00819827)
(0.821807 0.00203504 0.00478212)
(0.832113 0.00106321 0.00258057)
(0.837574 0.000129045 0.000965784)
(0.838943 -0.00074452 -0.000434269)
(0.836302 -0.00154308 -0.00191075)
(0.829072 -0.00225286 -0.00379039)
(0.815785 -0.0028537 -0.00661933)
(0.793496 -0.00331382 -0.011481)
(0.756812 -0.00358654 -0.0205924)
(0.695468 -0.00361025 -0.038207)
(0.584263 -0.00331107 -0.0717335)
(0.399308 -0.00259093 -0.128965)
(0.291363 -0.00126299 -0.16068)
(0.282687 0.00332039 0.157599)
(0.37977 0.00627309 0.128867)
(0.557103 0.00742243 0.0755077)
(0.67053 0.00745333 0.0428635)
(0.73618 0.00676414 0.0243643)
(0.777213 0.00564453 0.0140244)
(0.803465 0.00430921 0.00821762)
(0.820165 0.00290499 0.00479867)
(0.830396 0.00152113 0.00259754)
(0.835817 0.00020475 0.000984697)
(0.837177 -0.00102296 -0.000413381)
(0.834559 -0.00215189 -0.00188893)
(0.827392 -0.00317098 -0.00376994)
(0.81422 -0.00405701 -0.00660353)
(0.792113 -0.00476528 -0.0114735)
(0.755685 -0.0052218 -0.0205961)
(0.69467 -0.00532023 -0.0382232)
(0.583837 -0.00492641 -0.0717629)
(0.399218 -0.00386577 -0.129013)
(0.291391 -0.00185924 -0.160742)
(0.282723 0.00468677 0.157771)
(0.379612 0.0088294 0.129026)
(0.556393 0.0103248 0.0755961)
(0.669201 0.010201 0.042893)
(0.734304 0.00910349 0.0243589)
(0.774914 0.00748197 0.0140051)
(0.800861 0.00564368 0.00819824)
(0.817349 0.0037782 0.00478731)
(0.827439 0.00198502 0.00259842)
(0.832771 0.000303902 0.000999367)
(0.834089 -0.00125884 -0.000385401)
(0.83148 -0.00270902 -0.00184947)
(0.824387 -0.00404845 -0.00372265)
(0.811377 -0.0052589 -0.00655347)
(0.789546 -0.0062865 -0.0114264)
(0.753537 -0.00702433 -0.0205571)
(0.693094 -0.00729881 -0.0381956)
(0.582955 -0.00687141 -0.0717509)
(0.399017 -0.00542125 -0.129037)
(0.291445 -0.00253351 -0.160824)
(0.282813 0.00629533 0.157949)
(0.379311 0.0119463 0.129059)
(0.55499 0.013727 0.0754895)
(0.666657 0.0132281 0.0427144)
(0.730812 0.0115173 0.024166)
(0.770703 0.00926384 0.0138323)
(0.796128 0.00687247 0.00806171)
(0.812245 0.00455758 0.00469319)
(0.82207 0.00240481 0.00254794)
(0.827223 0.000424655 0.000991375)
(0.828437 -0.00140928 -0.000353353)
(0.825807 -0.00313382 -0.00178022)
(0.818797 -0.00477796 -0.0036203)
(0.806011 -0.00634279 -0.00642292)
(0.7846 -0.0077776 -0.0112724)
(0.749271 -0.00894431 -0.0203824)
(0.689822 -0.00957705 -0.0380005)
(0.580994 -0.00926343 -0.0715452)
(0.398482 -0.00738353 -0.128884)
(0.291518 -0.00324499 -0.160855)
(0.282888 0.00789798 0.157824)
(0.378361 0.0155664 0.128379)
(0.551588 0.0174026 0.074607)
(0.660992 0.0161358 0.0418574)
(0.72339 0.0135625 0.02344)
(0.761979 0.0105916 0.0132646)
(0.786458 0.00768474 0.00764407)
(0.801889 0.00503315 0.00440806)
(0.81122 0.0026686 0.00237885)
(0.81603 0.0005451 0.000925856)
(0.817042 -0.00141396 -0.000323459)
(0.814356 -0.00329025 -0.0016584)
(0.807465 -0.00515495 -0.00340664)
(0.795027 -0.00704927 -0.00611285)
(0.77429 -0.00895286 -0.0108538)
(0.740102 -0.0107203 -0.0198311)
(0.68242 -0.0119892 -0.0372824)
(0.576142 -0.0121035 -0.0706548)
(0.396776 -0.00984475 -0.127989)
(0.291442 -0.00376641 -0.160493)
(0.28209 0.0084946 0.155967)
(0.374227 0.0189035 0.124899)
(0.541304 0.0202038 0.0712254)
(0.645763 0.0176367 0.0391152)
(0.704587 0.0141104 0.0214003)
(0.740595 0.0105982 0.0118143)
(0.763223 0.00747201 0.00664358)
(0.77733 0.0048169 0.00374689)
(0.785728 0.00256739 0.00198239)
(0.789923 0.000605014 0.000749085)
(0.790602 -0.00119832 -0.000302287)
(0.787866 -0.00296811 -0.00144101)
(0.781242 -0.00482073 -0.0029754)
(0.76947 -0.00685471 -0.00542498)
(0.749961 -0.00911946 -0.00982815)
(0.717849 -0.0115244 -0.0183267)
(0.663499 -0.0136882 -0.0350925)
(0.562459 -0.0147719 -0.0676073)
(0.390526 -0.0125166 -0.124402)
(0.290027 -0.00336469 -0.158271)
(0.273789 0.0063159 0.146283)
(0.354067 0.0187482 0.111672)
(0.50402 0.0187469 0.0606745)
(0.596283 0.0149762 0.0317614)
(0.646958 0.0112168 0.0165528)
(0.677331 0.00802192 0.00868365)
(0.696064 0.00545858 0.00463429)
(0.707503 0.00345187 0.00248059)
(0.71413 0.00185115 0.00123781)
(0.717264 0.000501774 0.000407748)
(0.717497 -0.000733248 -0.000287974)
(0.714908 -0.00198493 -0.001063)
(0.709071 -0.00337935 -0.00216542)
(0.698876 -0.00505028 -0.00403055)
(0.682046 -0.00712286 -0.0075566)
(0.654312 -0.00962667 -0.0146452)
(0.607044 -0.012352 -0.029122)
(0.517941 -0.0146578 -0.0582443)
(0.365116 -0.0132728 -0.111561)
(0.27979 -0.00100021 -0.148117)
(0.211644 0.00215231 0.102367)
(0.252261 0.00859635 0.0672751)
(0.349888 0.00816169 0.0319974)
(0.407283 0.00606095 0.0148781)
(0.436918 0.00429438 0.00687103)
(0.453891 0.00294575 0.00313093)
(0.463966 0.00194308 0.00140731)
(0.469878 0.00120722 0.000601557)
(0.47314 0.000649113 0.00020051)
(0.474534 0.00019204 -3.20322e-05)
(0.474392 -0.000225586 -0.000213211)
(0.472739 -0.000662723 -0.000437091)
(0.469298 -0.00117697 -0.000810507)
(0.463359 -0.00183724 -0.00154724)
(0.453487 -0.00272086 -0.00312963)
(0.436971 -0.00387737 -0.00665374)
(0.408162 -0.00527266 -0.0145064)
(0.351941 -0.00670132 -0.0318731)
(0.253791 -0.00634337 -0.0681813)
(0.213299 0.000409407 -0.103924)
(-0.00881601 -0.00298216 0.178528)
(-0.0216561 -0.00804324 0.138434)
(0.0311549 -0.00727982 0.0795595)
(0.0779891 -0.00540613 0.0446596)
(0.111638 -0.0038645 0.0250448)
(0.135217 -0.00265805 0.0141461)
(0.151131 -0.00172532 0.00807328)
(0.161379 -0.00100597 0.00455392)
(0.167432 -0.000430943 0.00234287)
(0.170191 6.10732e-05 0.000749834)
(0.170087 0.000523329 -0.000656608)
(0.167143 0.00099969 -0.00224193)
(0.160966 0.00153621 -0.00443889)
(0.150685 0.00217978 -0.00794973)
(0.13481 0.00297167 -0.0140808)
(0.111246 0.00391702 -0.0253137)
(0.077529 0.0049694 -0.046068)
(0.0306188 0.0060623 -0.0835615)
(-0.0223951 0.00594755 -0.145755)
(-0.00748291 0.000396407 -0.18612)
(-0.00410188 -0.00811966 0.265751)
(-0.00609485 -0.0198678 0.240864)
(0.0883544 -0.0195761 0.156596)
(0.174332 -0.0159612 0.0969165)
(0.239281 -0.0122037 0.0591456)
(0.286715 -0.00882019 0.0361184)
(0.319931 -0.00594864 0.0221539)
(0.342116 -0.00357152 0.0133895)
(0.355801 -0.00157829 0.00747728)
(0.362616 0.000163219 0.00299334)
(0.363379 0.00178219 -0.00102488)
(0.358168 0.00339388 -0.00540102)
(0.346313 0.00510714 -0.0110902)
(0.326272 0.00701422 -0.0195321)
(0.295435 0.00916228 -0.0332029)
(0.250208 0.0114697 -0.0564372)
(0.18665 0.0136484 -0.0961001)
(0.100246 0.0152015 -0.160827)
(0.00164465 0.0136036 -0.252018)
(0.00132451 0.00228475 -0.278342)
(-0.00249105 -0.010872 0.288806)
(0.00340497 -0.0239078 0.276738)
(0.115439 -0.0258267 0.189744)
(0.217906 -0.02303 0.123138)
(0.297097 -0.0187362 0.0784205)
(0.356205 -0.0141718 0.0497695)
(0.398469 -0.00989492 0.0315718)
(0.427331 -0.00609642 0.0196414)
(0.445632 -0.00276011 0.0112788)
(0.455244 0.00021913 0.00476279)
(0.457124 0.00297451 -0.00111842)
(0.45137 0.00563716 -0.00741712)
(0.43719 0.00831628 -0.0153358)
(0.412762 0.0110738 -0.0266237)
(0.374999 0.0138748 -0.0441752)
(0.319671 0.0164877 -0.0728528)
(0.242277 0.0183688 -0.119897)
(0.137776 0.0186036 -0.193111)
(0.0177415 0.0150525 -0.289381)
(0.00536448 0.00440611 -0.303768)
(-0.00203851 -0.0109448 0.29483)
(0.00757449 -0.0228171 0.288886)
(0.127164 -0.0260383 0.203102)
(0.23707 -0.0245163 0.135186)
(0.322949 -0.0208077 0.0882332)
(0.387772 -0.0162805 0.0572956)
(0.434681 -0.0116777 0.0370831)
(0.467157 -0.00734671 0.023456)
(0.488123 -0.00339203 0.0136592)
(0.499516 0.000210482 0.00588544)
(0.502323 0.00354101 -0.00116902)
(0.496624 0.00669076 -0.0086497)
(0.48155 0.00972593 -0.0178561)
(0.455119 0.0126532 -0.0306449)
(0.413997 0.0153688 -0.0500275)
(0.353632 0.0175822 -0.0809621)
(0.269265 0.0187352 -0.130616)
(0.155724 0.0179759 -0.206142)
(0.0252942 0.0139043 -0.302536)
(0.00674987 0.00504351 -0.311152)
(-0.00187547 -0.00949512 0.296166)
(0.00947181 -0.0195963 0.292737)
(0.132556 -0.0230582 0.208163)
(0.246079 -0.0224606 0.140362)
(0.335275 -0.0196457 0.0928699)
(0.402982 -0.015774 0.0611175)
(0.452291 -0.0115593 0.0400319)
(0.486697 -0.00739835 0.025568)
(0.509149 -0.00347225 0.0149976)
(0.521599 0.000168741 0.00650689)
(0.525033 0.00354096 -0.00122962)
(0.519501 0.006681 -0.00938565)
(0.504067 0.0096065 -0.0192894)
(0.476649 0.0122818 -0.0328243)
(0.433765 0.0145776 -0.0530199)
(0.370697 0.0162237 -0.0848248)
(0.282582 0.0167712 -0.13531)
(0.164292 0.0155989 -0.21132)
(0.0286855 0.0118564 -0.307175)
(0.00721102 0.00474982 -0.313305)
(-0.00178088 -0.00757236 0.296248)
(0.0104643 -0.0157004 0.29375)
(0.135336 -0.0188395 0.209905)
(0.250771 -0.0187731 0.142427)
(0.341738 -0.016781 0.0949118)
(0.41098 -0.0137393 0.0629227)
(0.461567 -0.0102375 0.0414931)
(0.497006 -0.00664351 0.0266442)
(0.520264 -0.00316042 0.0156824)
(0.533305 0.000119189 0.00680826)
(0.537106 0.00316527 -0.00130071)
(0.53169 0.00597147 -0.00982072)
(0.516073 0.00852093 -0.0200827)
(0.488104 0.0107577 -0.0339704)
(0.444213 0.0125583 -0.0545069)
(0.379599 0.0137061 -0.0866206)
(0.289378 0.0138788 -0.137328)
(0.168512 0.0126638 -0.213351)
(0.0302627 0.00954823 -0.308793)
(0.00737936 0.00401648 -0.313886)
(-0.00170624 -0.00564288 0.296052)
(0.01106 -0.0117966 0.293852)
(0.136933 -0.0143484 0.210383)
(0.253458 -0.0145214 0.143155)
(0.345437 -0.0131828 0.0957307)
(0.415548 -0.0109488 0.0637059)
(0.466842 -0.00826139 0.0421585)
(0.502841 -0.00541912 0.0271456)
(0.526528 -0.00260643 0.0159983)
(0.539879 7.4527e-05 0.00693158)
(0.543866 0.00257217 -0.00136856)
(0.538495 0.00485707 -0.0100734)
(0.52275 0.00689606 -0.0205095)
(0.494434 0.00863106 -0.034555)
(0.449928 0.00996074 -0.0552248)
(0.384394 0.0107273 -0.0874339)
(0.292958 0.0107144 -0.138177)
(0.170667 0.00965986 -0.214131)
(0.0310373 0.00725053 -0.309333)
(0.00745188 0.00312436 -0.314)
(-0.00164737 -0.00386163 0.29585)
(0.0114408 -0.00813746 0.293714)
(0.137904 -0.00999035 0.210423)
(0.255077 -0.0102165 0.143348)
(0.347657 -0.00937307 0.0960106)
(0.418276 -0.007863 0.0640063)
(0.469973 -0.0059866 0.0424291)
(0.506277 -0.00395821 0.0273538)
(0.530189 -0.00192005 0.0161253)
(0.543691 4.05578e-05 0.00696875)
(0.547758 0.00187209 -0.00142269)
(0.542384 0.00354042 -0.0102151)
(0.526535 0.00501144 -0.0207301)
(0.497987 0.0062371 -0.0348409)
(0.453098 0.00714421 -0.0555573)
(0.387013 0.00762798 -0.087788)
(0.294874 0.00755285 -0.13852)
(0.171795 0.00675997 -0.214416)
(0.0314338 0.00506026 -0.309494)
(0.00748803 0.00220643 -0.313989)
(-0.00160682 -0.00224164 0.295709)
(0.0116739 -0.00475205 0.293565)
(0.138477 -0.00586861 0.210353)
(0.256023 -0.00604015 0.143359)
(0.348948 -0.00557804 0.0960789)
(0.419855 -0.00470911 0.0641001)
(0.471775 -0.00360621 0.0425221)
(0.508241 -0.00239688 0.027427)
(0.532264 -0.00116953 0.0161666)
(0.545834 1.83331e-05 0.00697217)
(0.549926 0.00113025 -0.00145889)
(0.544532 0.00214066 -0.0102889)
(0.528606 0.00302515 -0.0208364)
(0.499913 0.00375261 -0.0349714)
(0.454796 0.00427932 -0.0557012)
(0.388397 0.00454595 -0.0879322)
(0.295871 0.00447851 -0.138649)
(0.172372 0.00399181 -0.214511)
(0.0316351 0.00298349 -0.309529)
(0.00750686 0.00130818 -0.313958)
(-0.00158625 -0.000734022 0.295638)
(0.0117858 -0.001561 0.29348)
(0.138747 -0.00193332 0.210296)
(0.256463 -0.00199596 0.143338)
(0.349548 -0.00184909 0.0960843)
(0.420587 -0.00156585 0.0641205)
(0.472608 -0.00120254 0.0425462)
(0.509144 -0.000801377 0.0274465)
(0.533212 -0.000392221 0.0161761)
(0.546807 4.98285e-06 0.00696846)
(0.550904 0.000377193 -0.00147671)
(0.545495 0.000715066 -0.0103201)
(0.529528 0.00100984 -0.0208785)
(0.500763 0.00125079 -0.0350209)
(0.455539 0.00142344 -0.0557533)
(0.388997 0.0015086 -0.0879815)
(0.2963 0.0014828 -0.13869)
(0.172617 0.00131919 -0.214536)
(0.0317205 0.00098526 -0.309531)
(0.00751511 0.000432972 -0.313939)
(-0.00158625 0.000734111 0.295638)
(0.0117858 0.00156111 0.29348)
(0.138747 0.00193346 0.210296)
(0.256463 0.00199609 0.143338)
(0.349548 0.0018492 0.0960843)
(0.420587 0.00156593 0.0641205)
(0.472608 0.00120258 0.0425462)
(0.509144 0.000801366 0.0274465)
(0.533212 0.000392165 0.0161761)
(0.546807 -5.0778e-06 0.00696847)
(0.550904 -0.000377322 -0.00147671)
(0.545495 -0.000715223 -0.0103201)
(0.529528 -0.00101002 -0.0208785)
(0.500763 -0.00125099 -0.0350209)
(0.455539 -0.00142364 -0.0557533)
(0.388997 -0.00150881 -0.0879815)
(0.2963 -0.001483 -0.13869)
(0.172617 -0.00131938 -0.214536)
(0.0317205 -0.000985415 -0.309531)
(0.00751511 -0.000433045 -0.313939)
(-0.00160682 0.00224172 0.295709)
(0.0116739 0.00475215 0.293565)
(0.138477 0.00586873 0.210353)
(0.256022 0.00604027 0.143359)
(0.348948 0.00557814 0.0960788)
(0.419855 0.00470919 0.0641001)
(0.471775 0.00360625 0.0425221)
(0.508241 0.00239688 0.027427)
(0.532264 0.00116949 0.0161666)
(0.545834 -1.84168e-05 0.00697219)
(0.549926 -0.00113037 -0.00145887)
(0.544532 -0.0021408 -0.0102889)
(0.528606 -0.00302531 -0.0208363)
(0.499913 -0.00375279 -0.0349714)
(0.454796 -0.00427951 -0.0557012)
(0.388397 -0.00454615 -0.0879321)
(0.295871 -0.00447871 -0.138649)
(0.172372 -0.003992 -0.214511)
(0.0316351 -0.00298364 -0.309529)
(0.00750686 -0.00130825 -0.313958)
(-0.00164737 0.00386171 0.29585)
(0.0114408 0.00813755 0.293714)
(0.137904 0.00999045 0.210423)
(0.255077 0.0102166 0.143348)
(0.347657 0.00937316 0.0960106)
(0.418276 0.00786307 0.0640062)
(0.469973 0.00598664 0.0424291)
(0.506277 0.00395822 0.0273538)
(0.530189 0.00192002 0.0161253)
(0.543691 -4.06221e-05 0.00696878)
(0.547758 -0.00187218 -0.00142265)
(0.542384 -0.00354054 -0.010215)
(0.526535 -0.00501158 -0.02073)
(0.497987 -0.00623725 -0.0348408)
(0.453098 -0.00714438 -0.0555573)
(0.387013 -0.00762815 -0.087788)
(0.294874 -0.00755303 -0.13852)
(0.171795 -0.00676014 -0.214416)
(0.0314338 -0.0050604 -0.309494)
(0.00748804 -0.00220649 -0.313989)
(-0.00170624 0.00564297 0.296052)
(0.01106 0.0117967 0.293852)
(0.136933 0.0143484 0.210383)
(0.253458 0.0145215 0.143155)
(0.345437 0.0131828 0.0957307)
(0.415547 0.0109489 0.0637059)
(0.466842 0.00826143 0.0421585)
(0.50284 0.00541913 0.0271456)
(0.526528 0.00260642 0.0159983)
(0.539879 -7.45649e-05 0.00693162)
(0.543866 -0.00257223 -0.00136851)
(0.538495 -0.00485716 -0.0100734)
(0.52275 -0.00689616 -0.0205095)
(0.494433 -0.00863118 -0.0345549)
(0.449928 -0.00996088 -0.0552247)
(0.384394 -0.0107274 -0.0874338)
(0.292958 -0.0107145 -0.138177)
(0.170668 -0.00966001 -0.214131)
(0.0310373 -0.00725066 -0.309333)
(0.00745189 -0.00312442 -0.314)
(-0.00178088 0.00757244 0.296248)
(0.0104643 0.0157005 0.29375)
(0.135336 0.0188396 0.209904)
(0.250771 0.0187731 0.142427)
(0.341737 0.0167811 0.0949117)
(0.41098 0.0137394 0.0629226)
(0.461567 0.0102375 0.0414931)
(0.497005 0.00664354 0.0266442)
(0.520264 0.00316044 0.0156824)
(0.533305 -0.000119196 0.00680831)
(0.537106 -0.00316529 -0.00130065)
(0.531689 -0.00597152 -0.00982066)
(0.516073 -0.008521 -0.0200827)
(0.488104 -0.0107578 -0.0339703)
(0.444213 -0.0125584 -0.0545068)
(0.379599 -0.0137062 -0.0866205)
(0.289378 -0.013879 -0.137328)
(0.168512 -0.0126639 -0.213351)
(0.0302627 -0.00954833 -0.308793)
(0.00737936 -0.00401653 -0.313886)
(-0.00187548 0.00949522 0.296166)
(0.00947177 0.0195963 0.292737)
(0.132556 0.0230582 0.208163)
(0.246079 0.0224606 0.140362)
(0.335275 0.0196457 0.0928698)
(0.402981 0.015774 0.0611175)
(0.452291 0.0115593 0.0400319)
(0.486697 0.00739839 0.025568)
(0.509148 0.00347228 0.0149976)
(0.521599 -0.000168722 0.00650693)
(0.525033 -0.00354095 -0.00122956)
(0.5195 -0.00668101 -0.00938558)
(0.504067 -0.00960653 -0.0192893)
(0.476649 -0.0122819 -0.0328242)
(0.433765 -0.0145777 -0.0530198)
(0.370697 -0.0162238 -0.0848247)
(0.282582 -0.0167713 -0.13531)
(0.164292 -0.015599 -0.21132)
(0.0286855 -0.0118565 -0.307175)
(0.00721102 -0.00474986 -0.313305)
(-0.00203852 0.010945 0.29483)
(0.00757444 0.0228171 0.288886)
(0.127164 0.0260383 0.203102)
(0.23707 0.0245163 0.135186)
(0.322948 0.0208077 0.0882332)
(0.387772 0.0162805 0.0572956)
(0.434681 0.0116777 0.037083)
(0.467157 0.00734675 0.023456)
(0.488123 0.00339207 0.0136592)
(0.499515 -0.000210445 0.00588547)
(0.502322 -0.00354098 -0.00116896)
(0.496624 -0.00669075 -0.00864963)
(0.48155 -0.00972593 -0.017856)
(0.455119 -0.0126532 -0.0306448)
(0.413997 -0.0153688 -0.0500274)
(0.353632 -0.0175822 -0.080962)
(0.269265 -0.0187353 -0.130616)
(0.155724 -0.0179759 -0.206142)
(0.0252942 -0.0139044 -0.302536)
(0.00674986 -0.00504354 -0.311152)
(-0.00249104 0.0108721 0.288806)
(0.00340492 0.0239077 0.276738)
(0.115439 0.0258267 0.189744)
(0.217906 0.02303 0.123138)
(0.297096 0.0187362 0.0784204)
(0.356205 0.0141718 0.0497694)
(0.398469 0.00989494 0.0315717)
(0.42733 0.00609645 0.0196414)
(0.445631 0.00276014 0.0112789)
(0.455244 -0.000219092 0.00476281)
(0.457124 -0.00297447 -0.00111838)
(0.45137 -0.00563713 -0.00741706)
(0.43719 -0.00831626 -0.0153357)
(0.412761 -0.0110738 -0.0266236)
(0.374999 -0.0138748 -0.0441751)
(0.319671 -0.0164877 -0.0728527)
(0.242277 -0.0183688 -0.119897)
(0.137776 -0.0186036 -0.193111)
(0.0177415 -0.0150525 -0.289381)
(0.00536448 -0.00440612 -0.303768)
(-0.00410182 0.00811973 0.265751)
(-0.00609485 0.0198677 0.240864)
(0.0883543 0.0195761 0.156596)
(0.174332 0.0159612 0.0969164)
(0.239281 0.0122037 0.0591456)
(0.286715 0.00882019 0.0361184)
(0.31993 0.00594866 0.0221539)
(0.342115 0.00357154 0.0133895)
(0.355801 0.00157831 0.00747728)
(0.362616 -0.000163195 0.00299336)
(0.363378 -0.00178217 -0.00102485)
(0.358168 -0.00339386 -0.00540098)
(0.346313 -0.00510713 -0.0110902)
(0.326272 -0.00701422 -0.019532)
(0.295435 -0.00916227 -0.0332029)
(0.250208 -0.0114697 -0.0564372)
(0.18665 -0.0136484 -0.0961001)
(0.100246 -0.0152015 -0.160827)
(0.00164462 -0.0136036 -0.252018)
(0.0013245 -0.00228475 -0.278342)
(-0.00881595 0.00298208 0.178529)
(-0.0216562 0.00804314 0.138434)
(0.0311547 0.00727978 0.0795596)
(0.0779888 0.00540611 0.0446596)
(0.111637 0.00386449 0.0250448)
(0.135217 0.00265806 0.0141461)
(0.151131 0.00172533 0.00807328)
(0.161378 0.00100597 0.00455392)
(0.167431 0.00043095 0.00234287)
(0.17019 -6.10654e-05 0.00074984)
(0.170087 -0.000523321 -0.000656596)
(0.167143 -0.000999684 -0.00224192)
(0.160966 -0.00153621 -0.00443888)
(0.150685 -0.00217977 -0.00794971)
(0.13481 -0.00297167 -0.0140808)
(0.111246 -0.00391702 -0.0253137)
(0.077529 -0.0049694 -0.046068)
(0.0306188 -0.0060623 -0.0835614)
(-0.0223952 -0.00594755 -0.145755)
(-0.00748291 -0.000396403 -0.18612)
(-0.022187 -0.00312507 0.125619)
(-0.0480347 -0.00531168 0.133414)
(-0.0374948 -0.0047835 0.0991624)
(-0.0155999 -0.00363255 0.0675349)
(0.00646534 -0.00257892 0.0443823)
(0.0250065 -0.00171548 0.0287652)
(0.0390732 -0.00103195 0.0184634)
(0.0488928 -0.000490426 0.0115253)
(0.0549995 -4.54541e-05 0.00656857)
(0.057842 0.000343526 0.0026404)
(0.0576607 0.000712164 -0.000981854)
(0.0544492 0.00108832 -0.0049498)
(0.047945 0.00149756 -0.0100175)
(0.03766 0.00196356 -0.0172161)
(0.0229957 0.00250023 -0.0280941)
(0.00365628 0.00309432 -0.0449085)
(-0.0193102 0.00368879 -0.0703281)
(-0.0417938 0.004197 -0.105515)
(-0.0521254 0.00412699 -0.143549)
(-0.0236216 0.00184689 -0.135519)
(-0.0323479 -0.00811998 0.203079)
(-0.0690439 -0.0147891 0.24969)
(-0.046732 -0.014705 0.204508)
(-0.00314144 -0.0122808 0.14959)
(0.0422511 -0.00941926 0.104104)
(0.0816997 -0.00669679 0.0707715)
(0.112605 -0.004305 0.0472613)
(0.134893 -0.00226088 0.030498)
(0.149317 -0.000499579 0.0179471)
(0.156632 0.00106726 0.00767467)
(0.157267 0.00252931 -0.00187613)
(0.151213 0.00396446 -0.0121552)
(0.137995 0.00543666 -0.0247953)
(0.116732 0.00698726 -0.0419221)
(0.0863983 0.00860892 -0.0664769)
(0.0466507 0.0101941 -0.102269)
(-0.000188167 0.0114801 -0.152648)
(-0.0462143 0.0120533 -0.215293)
(-0.0713986 0.0107311 -0.268486)
(-0.0333144 0.0045965 -0.221236)
(-0.0343894 -0.0104889 0.229308)
(-0.0717366 -0.020487 0.298673)
(-0.0427879 -0.0223152 0.256502)
(0.0112388 -0.0201528 0.195117)
(0.0683169 -0.0164144 0.140362)
(0.118871 -0.0122633 0.0981302)
(0.159274 -0.00825798 0.0670549)
(0.189047 -0.00461016 0.0440761)
(0.208858 -0.00134182 0.0263507)
(0.219481 0.00161222 0.0115547)
(0.221369 0.00434685 -0.00227183)
(0.214484 0.0069545 -0.0169895)
(0.198242 0.00950053 -0.0346696)
(0.171584 0.0119974 -0.0579236)
(0.133297 0.014364 -0.0901892)
(0.0830349 0.0163591 -0.135579)
(0.0237118 0.017512 -0.196873)
(-0.0351947 0.0171089 -0.268702)
(-0.0707078 0.013858 -0.321733)
(-0.0345009 0.00571865 -0.251364)
(-0.0345991 -0.0106268 0.238535)
(-0.0708598 -0.0216297 0.319139)
(-0.0381723 -0.0248611 0.28107)
(0.0210432 -0.023547 0.218847)
(0.0839398 -0.0199511 0.160804)
(0.140221 -0.0154238 0.114534)
(0.185762 -0.0107249 0.0794898)
(0.219816 -0.00622745 0.0528977)
(0.24292 -0.00206741 0.0319367)
(0.255786 0.00174942 0.014183)
(0.258826 0.00527521 -0.00247704)
(0.251945 0.00857152 -0.0200796)
(0.234475 0.0116715 -0.0408809)
(0.205242 0.0145444 -0.0676685)
(0.162914 0.0170523 -0.103998)
(0.107114 0.0188962 -0.15391)
(0.0410016 0.0195667 -0.219592)
(-0.0252744 0.0183458 -0.293986)
(-0.0674445 0.0141682 -0.344598)
(-0.0342207 0.00579344 -0.262805)
(-0.0344509 -0.00951104 0.241732)
(-0.0696526 -0.0199231 0.327507)
(-0.0347684 -0.0236724 0.292272)
(0.027193 -0.023142 0.230648)
(0.0930767 -0.0201732 0.171707)
(0.15232 -0.0160027 0.123775)
(0.200591 -0.0114044 0.086789)
(0.237011 -0.00681862 0.0582266)
(0.26203 -0.00245947 0.035368)
(0.276303 0.00159739 0.0158012)
(0.280187 0.0053473 -0.00262231)
(0.273531 0.00880542 -0.0219951)