/*--------------------------------*- C++ -*----------------------------------*\
  =========                 |
  \\      /  F ield         | OpenFOAM: The Open Source CFD Toolbox
   \\    /   O peration     | Website:  https://openfoam.org
    \\  /    A nd           | Version:  9
     \\/     M anipulation  |
\*---------------------------------------------------------------------------*/
FoamFile
{
    format      ascii;
    class       volVectorField;
    location    "0.04";
    object      U;
}
// * * * * * * * * * * * * * * * * * * * * * * * * * * * * * * * * * * * * * //

dimensions      [0 1 -1 0 0 0 0];

internalField   nonuniform List<vector> 
1000
(
(-0.00123608 -2.38194e-05 0.0011921)
(-0.00423681 3.33061e-05 0.00152448)
(-0.00743902 4.02526e-05 0.001273)
(-0.00981662 2.63852e-05 0.000846525)
(-0.0111253 3.38046e-06 0.000338293)
(-0.0112424 -2.42967e-05 -0.00021031)
(-0.0101214 -5.15403e-05 -0.000758769)
(-0.00780587 -7.17355e-05 -0.00125189)
(-0.00451509 -6.88029e-05 -0.00156803)
(-0.00133433 -6.70461e-06 -0.00125353)
(-0.00165835 -5.29958e-05 0.00157594)
(-0.00569777 2.35092e-05 0.00207876)
(-0.0099949 3.92917e-05 0.00173816)
(-0.0131537 2.49971e-05 0.00114764)
(-0.0148757 -4.10281e-06 0.00044464)
(-0.0150113 -4.13039e-05 -0.000311773)
(-0.0135062 -7.82842e-05 -0.00106605)
(-0.0104175 -0.000103993 -0.00174112)
(-0.00601625 -9.60313e-05 -0.00216083)
(-0.00176998 -8.31666e-06 -0.00166809)
(-0.00169803 -5.26685e-05 0.00160151)
(-0.00586129 -2.47388e-05 0.00213244)
(-0.0103076 -9.68569e-06 0.00178434)
(-0.0135724 -7.89409e-06 0.00117707)
(-0.0153508 -1.50602e-05 0.000453722)
(-0.0154902 -2.7431e-05 -0.000324527)
(-0.0139342 -4.00896e-05 -0.00110053)
(-0.0107404 -4.64261e-05 -0.00179491)
(-0.00618393 -3.75692e-05 -0.0022241)
(-0.00180917 -1.62339e-06 -0.00170376)
(-0.00169229 -3.59492e-05 0.00159117)
(-0.00586254 -2.53032e-05 0.00212398)
(-0.0103312 -1.59259e-05 0.00177832)
(-0.0136122 -1.18236e-05 0.00117321)
(-0.0154002 -1.2351e-05 0.000451907)
(-0.0155414 -1.54851e-05 -0.000324748)
(-0.0139786 -1.87714e-05 -0.00109968)
(-0.0107691 -1.91491e-05 -0.00179335)
(-0.00618932 -1.33188e-05 -0.00222157)
(-0.00180521 4.61505e-07 -0.00169842)
(-0.00168834 -1.27887e-05 0.00158514)
(-0.00585631 -1.0503e-05 0.0021179)
(-0.0103285 -7.23698e-06 0.00177367)
(-0.0136131 -5.29781e-06 0.0011703)
(-0.0154036 -4.72555e-06 0.000450779)
(-0.0155458 -5.00878e-06 -0.000324237)
(-0.0139819 -5.38923e-06 -0.00109778)
(-0.0107694 -4.98263e-06 -0.0017904)
(-0.00618533 -3.02296e-06 -0.00221788)
(-0.00180211 4.36825e-07 -0.00169463)
(-0.00168833 1.27772e-05 0.00158514)
(-0.00585631 1.04222e-05 0.0021179)
(-0.0103285 7.20118e-06 0.00177367)
(-0.0136131 5.27826e-06 0.0011703)
(-0.0154036 4.71137e-06 0.00045078)
(-0.0155458 5.00028e-06 -0.000324235)
(-0.0139819 5.38849e-06 -0.00109778)
(-0.0107694 4.98688e-06 -0.0017904)
(-0.00618533 3.03274e-06 -0.00221787)
(-0.00180211 -4.18436e-07 -0.00169463)
(-0.00169228 3.59799e-05 0.00159117)
(-0.00586253 2.52336e-05 0.00212398)
(-0.0103312 1.59002e-05 0.00177831)
(-0.0136122 1.1808e-05 0.00117321)
(-0.0154002 1.23373e-05 0.000451905)
(-0.0155414 1.54761e-05 -0.000324745)
(-0.0139786 1.87689e-05 -0.00109967)
(-0.0107691 1.91505e-05 -0.00179335)
(-0.00618932 1.3326e-05 -0.00222156)
(-0.00180521 -4.47825e-07 -0.00169841)
(-0.00169803 5.26579e-05 0.00160151)
(-0.0058613 2.46677e-05 0.00213243)
(-0.0103076 9.67291e-06 0.00178432)
(-0.0135724 7.8849e-06 0.00117706)
(-0.0153508 1.50504e-05 0.000453717)
(-0.0154902 2.74227e-05 -0.000324525)
(-0.0139342 4.00863e-05 -0.00110052)
(-0.0107404 4.64244e-05 -0.0017949)
(-0.00618393 3.75715e-05 -0.00222409)
(-0.00180917 1.62919e-06 -0.00170375)
(-0.00165818 5.30677e-05 0.00157612)
(-0.00569764 -2.36179e-05 0.00207881)
(-0.00999484 -3.9254e-05 0.00173815)
(-0.0131537 -2.49814e-05 0.00114764)
(-0.0148756 4.11084e-06 0.000444639)
(-0.0150112 4.13074e-05 -0.000311769)
(-0.0135061 7.82855e-05 -0.00106604)
(-0.0104175 0.000103991 -0.0017411)
(-0.00601625 9.60301e-05 -0.00216081)
(-0.00176997 8.31914e-06 -0.00166808)
(-0.00123586 2.36389e-05 0.00119231)
(-0.00423685 -3.34543e-05 0.00152465)
(-0.00743903 -4.02339e-05 0.001273)
(-0.00981668 -2.63767e-05 0.000846527)
(-0.0111253 -3.37593e-06 0.000338297)
(-0.0112424 2.42967e-05 -0.000210302)
(-0.0101213 5.15382e-05 -0.000758757)
(-0.00780587 7.17322e-05 -0.00125187)
(-0.00451509 6.88011e-05 -0.00156802)
(-0.00133433 6.70774e-06 -0.00125353)
(-0.00184605 -0.000102037 0.00442668)
(-0.00619101 -3.58519e-05 0.00550719)
(-0.0106998 -1.33479e-05 0.00457189)
(-0.014015 -8.88811e-06 0.00302782)
(-0.0158331 -1.22138e-05 0.00120164)
(-0.016002 -2.03602e-05 -0.000760569)
(-0.0144575 -2.98853e-05 -0.0027238)
(-0.0112398 -3.48465e-05 -0.00449816)
(-0.00660902 -1.8206e-05 -0.00566092)
(-0.00199595 5.74109e-05 -0.00464866)
(-0.00255966 -0.000170859 0.00586359)
(-0.0085744 -7.93447e-05 0.00750461)
(-0.0147794 -3.98456e-05 0.00623626)
(-0.0192987 -2.6886e-05 0.00409962)
(-0.0217503 -2.74529e-05 0.00157561)
(-0.0219458 -3.66233e-05 -0.00112827)
(-0.0198108 -4.80033e-05 -0.0038254)
(-0.0154026 -5.14343e-05 -0.00625126)
(-0.00905342 -2.3227e-05 -0.0077947)
(-0.0027289 8.30181e-05 -0.00619735)
(-0.00263311 -0.000112299 0.00599258)
(-0.00885809 -7.83187e-05 0.00772244)
(-0.0153023 -5.01103e-05 0.00642174)
(-0.019988 -3.41468e-05 0.00421755)
(-0.0225272 -2.74775e-05 0.00161201)
(-0.0227274 -2.69911e-05 -0.00117936)
(-0.0205118 -2.80003e-05 -0.0039636)
(-0.0159388 -2.39097e-05 -0.0064669)
(-0.00934639 -5.28789e-06 -0.00805107)
(-0.00280519 3.73e-05 -0.0063617)
(-0.00262813 -6.46851e-05 0.0059746)
(-0.00886513 -5.37573e-05 0.00771317)
(-0.0153401 -3.71968e-05 0.00641707)
(-0.0200488 -2.55629e-05 0.00421496)
(-0.0226018 -1.90075e-05 0.00161005)
(-0.0228049 -1.59738e-05 -0.00118235)
(-0.0205801 -1.39418e-05 -0.00396898)
(-0.0159853 -9.56201e-06 -0.0064751)
(-0.00935974 7.52579e-07 -0.00805962)
(-0.00280237 1.66038e-05 -0.00636046)
(-0.00262279 -2.13928e-05 0.0059598)
(-0.00885613 -1.90798e-05 0.0076989)
(-0.015335 -1.36497e-05 0.00640662)
(-0.020048 -9.42376e-06 0.00420874)
(-0.0226043 -6.74663e-06 0.00160786)
(-0.0228089 -5.21695e-06 -0.00118109)
(-0.0205831 -4.04688e-06 -0.00396506)
(-0.0159849 -2.27621e-06 -0.00646939)
(-0.00935437 9.23687e-07 -0.00805256)
(-0.00279832 4.83668e-06 -0.00635306)
(-0.00262279 2.13109e-05 0.00595981)
(-0.00885612 1.90281e-05 0.0076989)
(-0.015335 1.36665e-05 0.00640662)
(-0.020048 9.44635e-06 0.00420874)
(-0.0226043 6.75755e-06 0.00160786)
(-0.0228089 5.21797e-06 -0.00118109)
(-0.0205831 4.04394e-06 -0.00396506)
(-0.0159849 2.26764e-06 -0.00646938)
(-0.00935437 -9.30987e-07 -0.00805256)
(-0.00279832 -4.82648e-06 -0.00635306)
(-0.00262813 6.46172e-05 0.0059746)
(-0.00886514 5.37212e-05 0.00771316)
(-0.0153401 3.72229e-05 0.00641705)
(-0.0200489 2.55858e-05 0.00421494)
(-0.0226018 1.90157e-05 0.00161003)
(-0.0228049 1.59731e-05 -0.00118235)
(-0.0205801 1.39372e-05 -0.00396897)
(-0.0159853 9.55233e-06 -0.00647509)
(-0.00935975 -7.59293e-07 -0.00805961)
(-0.00280237 -1.65967e-05 -0.00636046)
(-0.00263312 0.000112226 0.00599257)
(-0.00885812 7.83031e-05 0.0077224)
(-0.0153023 5.01538e-05 0.00642169)
(-0.019988 3.41741e-05 0.00421751)
(-0.0225272 2.74845e-05 0.00161199)
(-0.0227274 2.69869e-05 -0.00117937)
(-0.0205118 2.79951e-05 -0.00396359)
(-0.0159388 2.39013e-05 -0.00646688)
(-0.00934639 5.28355e-06 -0.00805105)
(-0.00280519 -3.72953e-05 -0.0063617)
(-0.00255962 0.000170732 0.00586372)
(-0.00857438 7.93183e-05 0.00750464)
(-0.0147794 3.98783e-05 0.00623623)
(-0.0192987 2.69027e-05 0.00409959)
(-0.0217502 2.74541e-05 0.0015756)
(-0.0219458 3.66132e-05 -0.00112828)
(-0.0198108 4.79926e-05 -0.00382539)
(-0.0154026 5.14232e-05 -0.00625125)
(-0.00905341 2.32222e-05 -0.00779469)
(-0.00272889 -8.30155e-05 -0.00619735)
(-0.00184586 0.000101872 0.00442664)
(-0.00619087 3.58059e-05 0.00550732)
(-0.0106997 1.33459e-05 0.00457187)
(-0.014015 8.88176e-06 0.00302783)
(-0.0158331 1.22034e-05 0.00120165)
(-0.016002 2.03444e-05 -0.000760556)
(-0.0144575 2.98727e-05 -0.00272379)
(-0.0112397 3.48396e-05 -0.00449815)
(-0.00660902 1.82075e-05 -0.00566093)
(-0.00199594 -5.74045e-05 -0.00464867)
(-0.00228704 -0.000156164 0.00891312)
(-0.00758684 -7.96188e-05 0.0108639)
(-0.0129729 -4.6799e-05 0.0089492)
(-0.0168713 -3.18941e-05 0.0059054)
(-0.0190164 -2.47675e-05 0.00235722)
(-0.0192801 -2.34478e-05 -0.00143789)
(-0.017571 -2.52238e-05 -0.00526203)
(-0.0138491 -2.43663e-05 -0.00878141)
(-0.00829186 -7.96244e-07 -0.0111866)
(-0.00254772 8.85168e-05 -0.00940746)
(-0.00318571 -0.00026097 0.0117926)
(-0.0105525 -0.000154872 0.0147673)
(-0.0179945 -9.6843e-05 0.012174)
(-0.023328 -6.48744e-05 0.00797103)
(-0.0262274 -4.68618e-05 0.0030766)
(-0.0265398 -3.933e-05 -0.00214383)
(-0.0241578 -3.69383e-05 -0.00738713)
(-0.0190332 -3.00201e-05 -0.0121883)
(-0.0113862 8.86091e-06 -0.0153769)
(-0.00349019 0.000132634 -0.0125348)
(-0.00327771 -0.000169973 0.0120829)
(-0.0109039 -0.000131161 0.0152169)
(-0.0186363 -8.92033e-05 0.0125538)
(-0.0241685 -5.8547e-05 0.00821249)
(-0.0271728 -3.79666e-05 0.003153)
(-0.0274935 -2.53056e-05 -0.00224443)
(-0.0250204 -1.6381e-05 -0.00766578)
(-0.0197029 -4.82217e-06 -0.0126281)
(-0.0117607 1.96729e-05 -0.0159082)
(-0.00359059 6.6391e-05 -0.0128986)
(-0.00327089 -9.63875e-05 0.0120688)
(-0.0109095 -8.47446e-05 0.0152217)
(-0.0186766 -5.99594e-05 0.0125638)
(-0.0242354 -3.91678e-05 0.00822105)
(-0.0272563 -2.39797e-05 0.00315608)
(-0.0275819 -1.35758e-05 -0.00225026)
(-0.0251001 -5.7563e-06 -0.00768308)
(-0.0197591 2.83675e-06 -0.0126574)
(-0.0117789 1.62113e-05 -0.0159434)
(-0.00358846 3.20397e-05 -0.0129166)
(-0.00326372 -3.14049e-05 0.0120479)
(-0.0108963 -2.90366e-05 0.0152028)
(-0.0186669 -2.09179e-05 0.0125511)
(-0.0242303 -1.36565e-05 0.00821469)
(-0.0272553 -8.12309e-06 0.00315505)
(-0.0275833 -4.15354e-06 -0.00224728)
(-0.0251016 -1.0945e-06 -0.00767768)
(-0.0197578 1.95762e-06 -0.012651)
(-0.0117725 6.07855e-06 -0.0159364)
(-0.0035839 9.66724e-06 -0.0129095)
(-0.00326372 3.13625e-05 0.0120479)
(-0.0108963 2.90446e-05 0.0152028)
(-0.0186669 2.09757e-05 0.0125511)
(-0.0242303 1.37066e-05 0.00821468)
(-0.0272553 8.1505e-06 0.00315504)
(-0.0275833 4.16319e-06 -0.00224728)
(-0.0251016 1.09545e-06 -0.00767768)
(-0.0197578 -1.96707e-06 -0.012651)
(-0.0117725 -6.09241e-06 -0.0159364)
(-0.0035839 -9.66567e-06 -0.0129095)
(-0.0032709 9.63537e-05 0.0120688)
(-0.0109095 8.47636e-05 0.0152217)
(-0.0186767 6.00192e-05 0.0125637)
(-0.0242355 3.92123e-05 0.00822102)
(-0.0272564 2.39987e-05 0.00315605)
(-0.0275819 1.35791e-05 -0.00225027)
(-0.0251001 5.75326e-06 -0.00768308)
(-0.0197591 -2.84765e-06 -0.0126574)
(-0.0117789 -1.62242e-05 -0.0159434)
(-0.00358846 -3.20399e-05 -0.0129166)
(-0.00327773 0.000169952 0.0120829)
(-0.010904 0.000131194 0.0152169)
(-0.0186363 8.92688e-05 0.0125537)
(-0.0241685 5.85856e-05 0.00821243)
(-0.0271728 3.79751e-05 0.00315296)
(-0.0274935 2.52956e-05 -0.00224446)
(-0.0250204 1.63706e-05 -0.00766579)
(-0.0197029 4.80898e-06 -0.0126281)
(-0.0117607 -1.96837e-05 -0.0159082)
(-0.00359059 -6.63923e-05 -0.0128986)
(-0.00318572 0.000260991 0.0117926)
(-0.0105526 0.000154895 0.0147673)
(-0.0179945 9.68805e-05 0.012174)
(-0.0233281 6.48857e-05 0.00797099)
(-0.0262274 4.68473e-05 0.00307657)
(-0.0265398 3.92992e-05 -0.00214386)
(-0.0241578 3.6913e-05 -0.00738714)
(-0.0190332 3.00017e-05 -0.0121883)
(-0.0113862 -8.87069e-06 -0.0153769)
(-0.00349018 -0.000132636 -0.0125348)
(-0.00228703 0.000156172 0.00891313)
(-0.00758685 7.96176e-05 0.010864)
(-0.0129729 4.67989e-05 0.00894921)
(-0.0168713 3.18812e-05 0.00590541)
(-0.0190164 2.47444e-05 0.00235723)
(-0.0192801 2.34167e-05 -0.00143789)
(-0.017571 2.52022e-05 -0.00526203)
(-0.0138491 2.43585e-05 -0.00878142)
(-0.00829187 7.98994e-07 -0.0111866)
(-0.00254772 -8.85115e-05 -0.00940746)
(-0.00301968 -0.000223746 0.0145341)
(-0.00979795 -0.000130202 0.0174049)
(-0.0164223 -8.34912e-05 0.0141669)
(-0.0210938 -5.67749e-05 0.00930355)
(-0.0236752 -3.95156e-05 0.00377767)
(-0.024117 -3.03806e-05 -0.00209547)
(-0.0222862 -2.70812e-05 -0.00809941)
(-0.0179685 -2.35179e-05 -0.013821)
(-0.0111143 6.37536e-06 -0.0180046)
(-0.00352948 0.000111919 -0.015546)
(-0.00420077 -0.000376222 0.0191605)
(-0.013617 -0.000246412 0.0235694)
(-0.022774 -0.000161991 0.0191962)
(-0.0291654 -0.000106296 0.0124995)
(-0.0326504 -6.78388e-05 0.00489422)
(-0.0331878 -4.41253e-05 -0.00316769)
(-0.0306188 -3.0838e-05 -0.0113811)
(-0.0246622 -1.78274e-05 -0.0191673)
(-0.0152327 2.93872e-05 -0.0247054)
(-0.00482316 0.000172706 -0.0206793)
(-0.00432011 -0.000247375 0.0196333)
(-0.0140621 -0.000199928 0.0242836)
(-0.0235744 -0.000136652 0.0197949)
(-0.0302042 -8.50567e-05 0.0128809)
(-0.0338161 -4.63436e-05 0.00502094)
(-0.0343705 -1.91939e-05 -0.00331398)
(-0.0317045 -2.30709e-07 -0.0118079)
(-0.0255265 1.70295e-05 -0.0198581)
(-0.0157368 4.50606e-05 -0.0255595)
(-0.00496592 9.40329e-05 -0.0212899)
(-0.00430996 -0.000139909 0.0196198)
(-0.0140635 -0.000125822 0.0243009)
(-0.0236158 -8.79329e-05 0.0198211)
(-0.0302774 -5.35297e-05 0.0129046)
(-0.0339106 -2.64611e-05 0.005035)
(-0.0344738 -6.70165e-06 -0.00331553)
(-0.0318017 7.50434e-06 -0.0118299)
(-0.0255992 1.96826e-05 -0.0199032)
(-0.015766 3.50869e-05 -0.02562)
(-0.00496734 4.8639e-05 -0.0213301)
(-0.00429986 -4.5349e-05 0.0195912)
(-0.0140436 -4.24986e-05 0.0242763)
(-0.0235984 -3.00358e-05 0.0198069)
(-0.0302655 -1.81401e-05 0.0129002)
(-0.0339043 -8.51751e-06 0.00503827)
(-0.0344719 -1.29934e-06 -0.00330707)
(-0.0318018 3.93732e-06 -0.0118189)
(-0.0255977 8.25235e-06 -0.0198923)
(-0.0157601 1.28516e-05 -0.0256106)
(-0.00496304 1.5252e-05 -0.021323)
(-0.00429986 4.53187e-05 0.0195912)
(-0.0140436 4.25105e-05 0.0242763)
(-0.0235984 3.00815e-05 0.0198069)
(-0.0302655 1.81774e-05 0.0129002)
(-0.0339043 8.53299e-06 0.00503827)
(-0.0344719 1.2994e-06 -0.00330707)
(-0.0318018 -3.93974e-06 -0.0118189)
(-0.0255977 -8.2621e-06 -0.0198923)
(-0.0157601 -1.2866e-05 -0.0256106)
(-0.00496304 -1.52546e-05 -0.021323)
(-0.00430996 0.000139883 0.0196199)
(-0.0140635 0.000125838 0.0243009)
(-0.0236158 8.79765e-05 0.019821)
(-0.0302775 5.35602e-05 0.0129046)
(-0.0339106 2.6467e-05 0.00503498)
(-0.0344738 6.69455e-06 -0.00331554)
(-0.0318017 -7.51034e-06 -0.0118299)
(-0.0255992 -1.96932e-05 -0.0199032)
(-0.015766 -3.50991e-05 -0.02562)
(-0.00496733 -4.86413e-05 -0.0213301)
(-0.00432011 0.000247356 0.0196334)
(-0.0140622 0.00019995 0.0242836)
(-0.0235744 0.000136697 0.0197949)
(-0.0302043 8.50804e-05 0.0128809)
(-0.0338161 4.63407e-05 0.00502092)
(-0.0343705 1.91739e-05 -0.00331399)
(-0.0317045 2.19585e-07 -0.0118079)
(-0.0255266 -1.70395e-05 -0.0198581)
(-0.0157368 -4.50717e-05 -0.0255595)
(-0.00496591 -9.40347e-05 -0.0212899)
(-0.00420078 0.000376228 0.0191605)
(-0.013617 0.000246431 0.0235694)
(-0.022774 0.000162016 0.0191962)
(-0.0291655 0.000106298 0.0124995)
(-0.0326504 6.78156e-05 0.00489422)
(-0.0331879 4.40869e-05 -0.0031677)
(-0.0306188 3.0817e-05 -0.0113811)
(-0.0246622 1.78193e-05 -0.0191673)
(-0.0152327 -2.93913e-05 -0.0247054)
(-0.00482315 -0.000172706 -0.0206793)
(-0.00301967 0.000223753 0.014534)
(-0.00979793 0.000130208 0.017405)
(-0.0164223 8.34948e-05 0.014167)
(-0.0210938 5.67642e-05 0.00930358)
(-0.0236752 3.94945e-05 0.00377768)
(-0.024117 3.03512e-05 -0.00209547)
(-0.0222862 2.70687e-05 -0.00809942)
(-0.0179685 2.35232e-05 -0.013821)
(-0.0111143 -6.36269e-06 -0.0180046)
(-0.00352947 -0.00011191 -0.015546)
(-0.00431647 -0.000328729 0.0221408)
(-0.0134531 -0.000208079 0.0258142)
(-0.0217585 -0.000134583 0.0205997)
(-0.0273639 -8.64387e-05 0.0134132)
(-0.0304664 -5.28997e-05 0.00558078)
(-0.0312073 -3.20885e-05 -0.00264958)
(-0.0294104 -2.17213e-05 -0.0112439)
(-0.0245378 -1.64592e-05 -0.0198909)
(-0.0160175 1.82317e-05 -0.0268688)
(-0.00537976 0.000131064 -0.0242399)
(-0.00598031 -0.000551042 0.0290527)
(-0.0186432 -0.000382567 0.0348063)
(-0.0301268 -0.000249085 0.0277952)
(-0.0377962 -0.000151943 0.0179331)
(-0.0419774 -8.10845e-05 0.00717757)
(-0.0428966 -3.37354e-05 -0.00409899)
(-0.0403444 -6.6393e-06 -0.0158344)
(-0.0336064 9.91348e-06 -0.0275792)
(-0.0219012 6.20323e-05 -0.0368215)
(-0.00733478 0.00020836 -0.0322096)
(-0.00614654 -0.000359497 0.0297527)
(-0.0192348 -0.000296256 0.0358422)
(-0.0311608 -0.000195493 0.0286564)
(-0.0391192 -0.000109349 0.0184853)
(-0.043456 -4.27804e-05 0.00737649)
(-0.0444091 4.94655e-06 -0.00427867)
(-0.0417643 3.61356e-05 -0.0164134)
(-0.0347797 5.72474e-05 -0.028558)
(-0.0226375 8.43921e-05 -0.0380796)
(-0.00756507 0.000123035 -0.0331693)
(-0.00613126 -0.000201126 0.0297368)
(-0.0192282 -0.000181379 0.035873)
(-0.0312009 -0.000121188 0.028705)
(-0.0391995 -6.50555e-05 0.0185341)
(-0.0435655 -2.02479e-05 0.0074141)
(-0.0445343 1.26298e-05 -0.00426173)
(-0.0418891 3.52146e-05 -0.0164259)
(-0.0348827 5.04677e-05 -0.0286085)
(-0.022694 6.42846e-05 -0.0381632)
(-0.00757849 6.7989e-05 -0.0332407)
(-0.00611652 -6.4689e-05 0.0296978)
(-0.0191971 -6.04739e-05 0.0358416)
(-0.0311711 -4.07418e-05 0.028691)
(-0.039177 -2.15289e-05 0.0185359)
(-0.0435517 -5.84344e-06 0.00742736)
(-0.0445281 5.88679e-06 -0.00424095)
(-0.0418883 1.39978e-05 -0.016402)
(-0.0348833 1.93214e-05 -0.0285864)
(-0.0226924 2.32715e-05 -0.0381469)
(-0.0075768 2.20813e-05 -0.0332338)
(-0.00611652 6.46679e-05 0.0296978)
(-0.0191971 6.04914e-05 0.0358416)
(-0.0311711 4.07803e-05 0.028691)
(-0.039177 2.15599e-05 0.0185358)
(-0.0435517 5.85587e-06 0.00742736)
(-0.0445281 -5.88177e-06 -0.00424095)
(-0.0418883 -1.39839e-05 -0.016402)
(-0.0348833 -1.93115e-05 -0.0285864)
(-0.0226924 -2.3269e-05 -0.0381469)
(-0.0075768 -2.20786e-05 -0.0332338)
(-0.00613126 0.000201108 0.0297368)
(-0.0192282 0.000181398 0.035873)
(-0.0312009 0.000121224 0.0287049)
(-0.0391996 6.50813e-05 0.0185341)
(-0.0435656 2.02535e-05 0.00741409)
(-0.0445343 -1.26305e-05 -0.00426173)
(-0.0418891 -3.52031e-05 -0.0164259)
(-0.0348827 -5.04559e-05 -0.0286084)
(-0.022694 -6.4277e-05 -0.0381632)
(-0.00757848 -6.79835e-05 -0.0332407)
(-0.00614654 0.000359488 0.0297527)
(-0.0192348 0.000296279 0.0358422)
(-0.0311609 0.000195529 0.0286564)
(-0.0391193 0.000109368 0.0184853)
(-0.043456 4.27824e-05 0.00737648)
(-0.0444091 -4.95363e-06 -0.00427866)
(-0.0417643 -3.61203e-05 -0.0164134)
(-0.0347797 -5.72287e-05 -0.028558)
(-0.0226375 -8.43855e-05 -0.0380796)
(-0.00756507 -0.000123028 -0.0331693)
(-0.00598032 0.000551057 0.0290528)
(-0.0186432 0.000382596 0.0348063)
(-0.0301268 0.000249107 0.0277952)
(-0.0377963 0.000151941 0.0179331)
(-0.0419775 8.10654e-05 0.00717755)
(-0.0428966 3.37138e-05 -0.00409898)
(-0.0403444 6.6538e-06 -0.0158343)
(-0.0336064 -9.88731e-06 -0.0275792)
(-0.0219012 -6.20194e-05 -0.0368215)
(-0.00733479 -0.00020836 -0.0322096)
(-0.00431646 0.000328747 0.0221408)
(-0.0134531 0.000208096 0.0258142)
(-0.0217584 0.000134586 0.0205997)
(-0.0273639 8.64231e-05 0.0134132)
(-0.0304664 5.28814e-05 0.00558077)
(-0.0312073 3.20725e-05 -0.00264959)
(-0.0294104 2.17359e-05 -0.0112439)
(-0.0245378 1.64923e-05 -0.0198909)
(-0.0160175 -1.82009e-05 -0.0268688)
(-0.00537978 -0.000131054 -0.0242398)
(-0.00669797 -0.000502255 0.0332567)
(-0.0195411 -0.000332724 0.0369044)
(-0.0297566 -0.000199679 0.0284896)
(-0.0361653 -0.000108413 0.018264)
(-0.0397005 -4.58351e-05 0.00782245)
(-0.040896 -3.83774e-06 -0.00292191)
(-0.0395782 2.06601e-05 -0.0144474)
(-0.0346842 2.73306e-05 -0.0269681)
(-0.0246317 5.7201e-05 -0.0385224)
(-0.00901003 0.000133153 -0.0376525)
(-0.00920854 -0.000829433 0.0433651)
(-0.0269337 -0.000590282 0.049526)
(-0.0410839 -0.000354597 0.0382901)
(-0.0498663 -0.00017913 0.0243215)
(-0.0546214 -5.3617e-05 0.0100186)
(-0.0561233 3.23358e-05 -0.00468019)
(-0.0541799 8.35514e-05 -0.020403)
(-0.0473798 0.000102362 -0.0373942)
(-0.0335996 0.000144258 -0.0527282)
(-0.0122554 0.000223237 -0.0500174)
(-0.00945569 -0.000524638 0.0443707)
(-0.0277501 -0.000430551 0.0509715)
(-0.042446 -0.000260243 0.0394778)
(-0.0515724 -0.000115196 0.0250912)
(-0.056515 -4.98594e-06 0.0103286)
(-0.0580786 7.29362e-05 -0.00485679)
(-0.0560699 0.000121805 -0.0211069)
(-0.0490269 0.000144458 -0.0386769)
(-0.0347565 0.00016019 -0.0544908)
(-0.0126687 0.000149468 -0.0515281)
(-0.00943217 -0.000286853 0.044352)
(-0.0277275 -0.000254849 0.0510228)
(-0.0424774 -0.00015607 0.0395627)
(-0.0516571 -6.50057e-05 0.0251833)
(-0.056641 6.71883e-06 0.0104103)
(-0.0582315 5.8994e-05 -0.0047988)
(-0.0562351 9.33271e-05 -0.0210857)
(-0.049182 0.000110019 -0.0387132)
(-0.0348737 0.000115051 -0.0545902)
(-0.0127141 8.95862e-05 -0.0516545)
(-0.00941001 -9.10875e-05 0.0443005)
(-0.0276782 -8.37178e-05 0.0509848)
(-0.0424271 -5.18199e-05 0.0395532)
(-0.051618 -2.11397e-05 0.025198)
(-0.0566157 3.49228e-06 0.0104422)
(-0.0582189 2.17955e-05 -0.00475632)
(-0.0562341 3.38365e-05 -0.0210384)
(-0.049189 3.96479e-05 -0.0386703)
(-0.0348851 4.05712e-05 -0.0545605)
(-0.0127208 3.01522e-05 -0.0516513)
(-0.00941001 9.10692e-05 0.0443005)
(-0.0276782 8.37277e-05 0.0509848)
(-0.0424271 5.18352e-05 0.0395532)
(-0.051618 2.11505e-05 0.025198)
(-0.0566157 -3.489e-06 0.0104422)
(-0.0582189 -2.17829e-05 -0.00475631)
(-0.0562341 -3.38029e-05 -0.0210383)
(-0.049189 -3.96262e-05 -0.0386703)
(-0.0348851 -4.05732e-05 -0.0545605)
(-0.0127208 -3.01501e-05 -0.0516513)
(-0.00943217 0.000286839 0.044352)
(-0.0277275 0.000254858 0.0510228)
(-0.0424774 0.000156081 0.0395626)
(-0.0516571 6.50085e-05 0.0251832)
(-0.056641 -6.72429e-06 0.0104103)
(-0.0582315 -5.89932e-05 -0.00479879)
(-0.0562351 -9.33013e-05 -0.0210857)
(-0.0491821 -0.000109995 -0.0387132)
(-0.0348737 -0.000115046 -0.0545902)
(-0.0127141 -8.95785e-05 -0.0516545)
(-0.00945569 0.000524631 0.0443708)
(-0.0277501 0.000430556 0.0509715)
(-0.042446 0.000260244 0.0394777)
(-0.0515724 0.000115178 0.0250911)
(-0.056515 4.96748e-06 0.0103286)
(-0.0580786 -7.29493e-05 -0.00485678)
(-0.0560699 -0.000121784 -0.0211069)
(-0.0490269 -0.00014444 -0.0386769)
(-0.0347565 -0.000160204 -0.0544908)
(-0.0126688 -0.000149468 -0.0515281)
(-0.00920856 0.000829448 0.0433652)
(-0.0269337 0.000590286 0.0495259)
(-0.0410839 0.000354572 0.0382901)
(-0.0498663 0.000179083 0.0243215)
(-0.0546214 5.35777e-05 0.0100186)
(-0.0561232 -3.23556e-05 -0.00468018)
(-0.0541798 -8.35232e-05 -0.020403)
(-0.0473799 -0.000102335 -0.0373942)
(-0.0335997 -0.000144276 -0.0527282)
(-0.0122554 -0.000223256 -0.0500174)
(-0.00669798 0.000502272 0.0332567)
(-0.0195411 0.000332721 0.0369044)
(-0.0297566 0.000199649 0.0284896)
(-0.0361653 0.000108363 0.018264)
(-0.0397005 4.58014e-05 0.00782243)
(-0.040896 3.82182e-06 -0.00292192)
(-0.0395782 -2.06371e-05 -0.0144474)
(-0.0346842 -2.72956e-05 -0.0269681)
(-0.0246317 -5.71872e-05 -0.0385224)
(-0.00901006 -0.000133159 -0.0376525)
(-0.0114327 -0.000783563 0.0508534)
(-0.0300851 -0.000507634 0.0512988)
(-0.0413589 -0.000242608 0.0375373)
(-0.0476177 -7.0981e-05 0.023438)
(-0.0510281 3.75252e-05 0.0103548)
(-0.052758 0.000113667 -0.00260091)
(-0.0527782 0.000167063 -0.0169131)
(-0.0493848 0.000182623 -0.0341146)
(-0.0396863 0.00020841 -0.0528499)
(-0.0161463 0.000100546 -0.0594869)
(-0.0155003 -0.00126587 0.0658232)
(-0.0410696 -0.000872723 0.0685914)
(-0.0568153 -0.000424589 0.0503518)
(-0.0654339 -0.00011085 0.031185)
(-0.0699887 9.77023e-05 0.0133033)
(-0.0721472 0.000244692 -0.00439684)
(-0.0719242 0.000346175 -0.0239017)
(-0.0670507 0.000377082 -0.0472312)
(-0.0537063 0.000401146 -0.0721589)
(-0.0216669 0.00018947 -0.0790662)
(-0.0158888 -0.000762966 0.0673137)
(-0.0422279 -0.000602002 0.0705848)
(-0.0586062 -0.000305309 0.0519476)
(-0.0676002 -6.57126e-05 0.0322291)
(-0.072354 0.000107047 0.0137857)
(-0.0745987 0.000229711 -0.00448926)
(-0.0743732 0.000312079 -0.0246265)
(-0.0693315 0.000337518 -0.0487443)
(-0.0555583 0.000324961 -0.0744655)
(-0.0224074 0.000157998 -0.08149)
(-0.0158518 -0.000403143 0.0673084)
(-0.0421749 -0.000345235 0.0706747)
(-0.0586135 -0.000182116 0.0520913)
(-0.0676801 -3.77368e-05 0.0323883)
(-0.0724913 7.2182e-05 0.0139358)
(-0.0747764 0.000151313 -0.00436528)
(-0.0745842 0.000204156 -0.0245369)
(-0.069561 0.000221696 -0.0487312)
(-0.0557933 0.000207066 -0.0745562)
(-0.0225233 0.000106121 -0.0817209)
(-0.0158179 -0.000125789 0.0672459)
(-0.0420964 -0.000111826 0.0706329)
(-0.0585311 -6.05164e-05 0.0520923)
(-0.0676161 -1.28153e-05 0.032423)
(-0.0724494 2.45101e-05 0.0139935)
(-0.0747544 5.15294e-05 -0.00429446)
(-0.0745827 6.93599e-05 -0.0244562)
(-0.06958 7.51889e-05 -0.0486569)
(-0.0558352 6.94156e-05 -0.0745046)
(-0.0225513 3.72338e-05 -0.0817322)
(-0.0158179 0.00012577 0.0672459)
(-0.0420964 0.000111818 0.0706329)
(-0.0585311 6.05066e-05 0.0520923)
(-0.0676161 1.28116e-05 0.032423)
(-0.0724494 -2.4503e-05 0.0139935)
(-0.0747544 -5.15055e-05 -0.00429446)
(-0.0745827 -6.93268e-05 -0.0244562)
(-0.06958 -7.51838e-05 -0.0486569)
(-0.0558352 -6.94274e-05 -0.0745046)
(-0.0225513 -3.72328e-05 -0.0817322)
(-0.0158518 0.000403127 0.0673084)
(-0.0421749 0.000345219 0.0706747)
(-0.0586135 0.000182098 0.0520913)
(-0.06768 3.77223e-05 0.0323882)
(-0.0724913 -7.21868e-05 0.0139358)
(-0.0747764 -0.000151304 -0.00436527)
(-0.0745842 -0.000204129 -0.0245369)
(-0.069561 -0.000221681 -0.0487312)
(-0.0557933 -0.000207066 -0.0745562)
(-0.0225232 -0.000106108 -0.0817209)
(-0.0158888 0.00076295 0.0673137)
(-0.0422279 0.000601971 0.0705848)
(-0.0586062 0.000305279 0.0519476)
(-0.0676002 6.56855e-05 0.0322291)
(-0.072354 -0.000107053 0.0137857)
(-0.0745987 -0.000229705 -0.00448924)
(-0.0743732 -0.000312053 -0.0246265)
(-0.0693316 -0.000337515 -0.0487443)
(-0.0555583 -0.000324989 -0.0744655)
(-0.0224074 -0.000157997 -0.0814899)
(-0.0155003 0.00126586 0.0658232)
(-0.0410696 0.000872688 0.0685914)
(-0.0568153 0.000424539 0.0503517)
(-0.0654339 0.000110808 0.031185)
(-0.0699887 -9.77081e-05 0.0133033)
(-0.0721472 -0.000244676 -0.0043968)
(-0.0719242 -0.000346142 -0.0239017)
(-0.0670508 -0.000377085 -0.0472313)
(-0.0537064 -0.000401182 -0.0721589)
(-0.021667 -0.00018948 -0.0790662)
(-0.0114327 0.000783561 0.0508534)
(-0.030085 0.000507603 0.0512988)
(-0.0413589 0.00024257 0.0375373)
(-0.0476177 7.09466e-05 0.023438)
(-0.0510281 -3.75221e-05 0.0103548)
(-0.052758 -0.000113645 -0.00260091)
(-0.0527782 -0.000167031 -0.0169132)
(-0.0493848 -0.000182608 -0.0341146)
(-0.0396863 -0.000208406 -0.0528499)
(-0.0161463 -0.000100536 -0.0594869)
(-0.0210004 -0.00106622 0.0765866)
(-0.0475332 -0.000629654 0.0672865)
(-0.0545679 -0.000118439 0.0455529)
(-0.0575172 0.000158195 0.0272977)
(-0.0590138 0.000308674 0.0124066)
(-0.0607224 0.000440663 -0.00137074)
(-0.0629509 0.000595995 -0.0175303)
(-0.0635204 0.000714862 -0.0398465)
(-0.0601736 0.000880893 -0.069756)
(-0.0256842 0.000155398 -0.0990788)
(-0.0280449 -0.00171005 0.0975421)
(-0.0640249 -0.00108921 0.0896483)
(-0.0742055 -0.000267404 0.0612092)
(-0.078207 0.000229424 0.0364989)
(-0.0799172 0.000526418 0.0161691)
(-0.0817268 0.000768441 -0.00264193)
(-0.0840817 0.00102458 -0.0245962)
(-0.083992 0.00118835 -0.0548672)
(-0.0787312 0.00136365 -0.094902)
(-0.0323063 0.000236257 -0.131809)
(-0.0287169 -0.00102879 0.0994897)
(-0.0656826 -0.00076733 0.0921955)
(-0.0763514 -0.000271036 0.0632078)
(-0.0806018 9.68716e-05 0.0378199)
(-0.0824053 0.000347438 0.0168691)
(-0.0842419 0.000530115 -0.00251152)
(-0.0866332 0.000689311 -0.0251674)
(-0.0864797 0.000747927 -0.0564635)
(-0.0811154 0.000730272 -0.0977955)
(-0.033164 0.000154801 -0.135994)
(-0.0286678 -0.000539252 0.0994551)
(-0.0655808 -0.000442775 0.0923038)
(-0.0762949 -0.000183475 0.0634156)
(-0.0806357 3.25439e-05 0.0380505)
(-0.0825101 0.000189864 0.0170962)
(-0.0843877 0.000300687 -0.00228772)
(-0.0868299 0.000389389 -0.0249862)
(-0.0867365 0.000414084 -0.0563874)
(-0.0814966 0.000375983 -0.0978835)
(-0.033371 0.000103369 -0.136493)
(-0.0286183 -0.000166675 0.099368)
(-0.0654604 -0.000143264 0.0922492)
(-0.0761658 -6.40692e-05 0.0634262)
(-0.0805371 6.04339e-06 0.0381042)
(-0.0824457 5.91231e-05 0.0171788)
(-0.0843487 9.6106e-05 -0.00218056)
(-0.0868213 0.00012421 -0.0248735)
(-0.0867681 0.000130674 -0.0562883)
(-0.0815916 0.000115135 -0.0978189)
(-0.0334382 3.76965e-05 -0.136559)
(-0.0286183 0.000166665 0.099368)
(-0.0654604 0.000143255 0.0922492)
(-0.0761658 6.40525e-05 0.0634262)
(-0.0805371 -6.04672e-06 0.0381042)
(-0.0824457 -5.91005e-05 0.0171788)
(-0.0843487 -9.60772e-05 -0.00218057)
(-0.0868213 -0.000124198 -0.0248735)
(-0.0867681 -0.000130674 -0.0562883)
(-0.0815916 -0.000115135 -0.0978189)
(-0.0334382 -3.76895e-05 -0.136559)
(-0.0286678 0.000539242 0.0994551)
(-0.0655808 0.000442753 0.0923037)
(-0.0762949 0.000183451 0.0634156)
(-0.0806357 -3.25534e-05 0.0380505)
(-0.08251 -0.000189848 0.0170962)
(-0.0843877 -0.000300666 -0.00228773)
(-0.0868299 -0.000389372 -0.0249863)
(-0.0867365 -0.000414064 -0.0563874)
(-0.0814966 -0.000375975 -0.0978835)
(-0.0333709 -0.000103357 -0.136493)
(-0.0287169 0.00102877 0.0994897)
(-0.0656826 0.0007673 0.0921955)
(-0.0763514 0.000271015 0.0632078)
(-0.0806018 -9.68795e-05 0.0378199)
(-0.0824052 -0.000347419 0.0168691)
(-0.0842419 -0.000530099 -0.00251152)
(-0.0866332 -0.0006893 -0.0251674)
(-0.0864797 -0.000747924 -0.0564635)
(-0.0811154 -0.000730292 -0.0977955)
(-0.0331641 -0.000154794 -0.135994)
(-0.0280449 0.00171004 0.0975421)
(-0.0640249 0.00108918 0.0896483)
(-0.0742055 0.000267379 0.0612092)
(-0.0782069 -0.000229429 0.0364989)
(-0.0799172 -0.000526385 0.0161691)
(-0.0817268 -0.000768413 -0.00264194)
(-0.0840817 -0.00102458 -0.0245962)
(-0.083992 -0.00118836 -0.0548672)
(-0.0787313 -0.00136366 -0.094902)
(-0.0323064 -0.000236254 -0.131809)
(-0.0210004 0.00106621 0.0765866)
(-0.0475332 0.00062962 0.0672865)
(-0.0545679 0.000118426 0.0455529)
(-0.0575172 -0.000158196 0.0272977)
(-0.0590138 -0.00030864 0.0124066)
(-0.0607224 -0.000440629 -0.00137077)
(-0.0629509 -0.000595985 -0.0175303)
(-0.0635204 -0.000714864 -0.0398464)
(-0.0601735 -0.000880863 -0.069756)
(-0.0256842 -0.000155362 -0.0990788)
(-0.0270424 -0.00217018 0.145763)
(-0.0491187 -0.000912084 0.082851)
(-0.0348652 0.000260976 0.0452862)
(-0.026658 0.000666435 0.0246658)
(-0.0220213 0.000824769 0.0108345)
(-0.0217985 0.00105136 -0.00118045)
(-0.0261325 0.00139971 -0.0168683)
(-0.0324261 0.00175046 -0.0451105)