/*--------------------------------*- C++ -*----------------------------------*\
  =========                 |
  \\      /  F ield         | OpenFOAM: The Open Source CFD Toolbox
   \\    /   O peration     | Website:  https://openfoam.org
    \\  /    A nd           | Version:  9
     \\/     M anipulation  |
\*---------------------------------------------------------------------------*/
FoamFile
{
    format      ascii;
    class       volScalarField;
    location    "0.43";
    object      p;
}
// * * * * * * * * * * * * * * * * * * * * * * * * * * * * * * * * * * * * * //

dimensions      [0 2 -2 0 0 0 0];

internalField   nonuniform List<scalar> 
1000
(
-1.55321e-06
-0.000427226
1.45974e-06
0.00119816
0.00318778
0.00582071
0.00865545
0.0109756
0.0120978
0.0113125
0.000170171
-0.000619642
-0.000281929
0.000956705
0.00310612
0.00600244
0.0091426
0.0116652
0.0127403
0.0114416
0.000814176
-0.000210026
9.49207e-05
0.00141642
0.00377265
0.00698411
0.0104645
0.0131406
0.0140269
0.0120681
0.00148319
0.000312122
0.000603838
0.00200228
0.00453821
0.00802628
0.0117456
0.0145005
0.0151967
0.0127333
0.00189406
0.00065706
0.000946037
0.00238765
0.00501934
0.00864753
0.0124959
0.0152811
0.0158668
0.0131434
0.00189395
0.000656958
0.000945961
0.00238759
0.00501929
0.00864749
0.0124959
0.0152811
0.0158668
0.0131434
0.00148282
0.00031181
0.000603606
0.00200211
0.00453808
0.00802616
0.0117455
0.0145004
0.0151966
0.0127332
0.000813446
-0.000210581
9.4529e-05
0.00141614
0.00377245
0.00698394
0.0104644
0.0131405
0.0140268
0.012068
0.000168738
-0.000620536
-0.000282491
0.000956336
0.00310586
0.00600224
0.00914243
0.011665
0.0127401
0.0114415
-4.70847e-06
-0.000428575
7.37221e-07
0.00119773
0.00318749
0.00582049
0.00865527
0.0109755
0.0120977
0.0113124
0.000325847
-7.78682e-05
0.000369852
0.00146359
0.00324766
0.00563635
0.00826808
0.0105189
0.0116638
0.0106292
0.000839633
1.50452e-05
0.000393054
0.00147528
0.00328418
0.00574919
0.00851017
0.0108683
0.0119727
0.0103019
0.00186354
0.000699669
0.00102771
0.00211546
0.00398857
0.0065803
0.00955458
0.0119932
0.0129255
0.0105655
0.00278484
0.00138438
0.00167105
0.00276654
0.0047073
0.007445
0.0105711
0.0130518
0.0138188
0.0109664
0.0033165
0.00179769
0.00206199
0.00316184
0.00514053
0.00796277
0.0111684
0.0136635
0.0143361
0.0112447
0.0033164
0.0017976
0.00206191
0.00316178
0.00514048
0.00796273
0.0111683
0.0136635
0.014336
0.0112447
0.00278452
0.0013841
0.00167083
0.00276637
0.00470716
0.00744488
0.010571
0.0130517
0.0138187
0.0109664
0.00186296
0.000699189
0.00102735
0.0021152
0.00398836
0.00658012
0.00955443
0.011993
0.0129254
0.0105654
0.000838701
1.43478e-05
0.000392567
0.00147495
0.00328394
0.00574899
0.00851
0.0108682
0.0119726
0.0103018
0.000324453
-7.87733e-05
0.000369269
0.0014632
0.00324738
0.00563613
0.00826791
0.0105188
0.0116637
0.010629
-0.000959721
-0.00149529
-0.0011214
-0.000154886
0.00152658
0.00398401
0.00698453
0.00988049
0.0116359
0.0104119
-0.000145509
-0.00125355
-0.000954593
-4.46601e-07
0.00170364
0.00425658
0.0074272
0.0104787
0.0121689
0.00984914
0.00133358
-0.000262498
-5.2693e-05
0.000845791
0.00254901
0.00521165
0.00857232
0.0117415
0.0132486
0.00994175
0.00260893
0.000672628
0.000801615
0.00164775
0.00335342
0.0061064
0.00960632
0.0128306
0.01416
0.0101986
0.00332619
0.00121932
0.00130221
0.00211786
0.00382579
0.00662896
0.0101934
0.0134319
0.01466
0.0103972
0.00332611
0.00121924
0.00130214
0.00211781
0.00382575
0.00662893
0.0101934
0.0134319
0.0146599
0.0103972
0.00260867
0.000672387
0.000801422
0.0016476
0.0033533
0.0061063
0.00960624
0.0128305
0.0141599
0.0101985
0.00133314
-0.000262891
-5.29994e-05
0.000845552
0.00254882
0.00521149
0.00857219
0.0117414
0.0132485
0.00994165
-0.000146143
-0.00125408
-0.000954993
-7.45572e-07
0.00170341
0.0042564
0.00742705
0.0104786
0.0121688
0.009849
-0.000960513
-0.00149592
-0.00112187
-0.000155226
0.00152632
0.00398381
0.00698437
0.00988034
0.0116358
0.0104117
-0.00421698
-0.00487378
-0.0046076
-0.0038265
-0.00226979
0.000395374
0.00421463
0.00859585
0.0119521
0.0110853
-0.00308375
-0.00446824
-0.0042834
-0.00350311
-0.00189944
0.000912474
0.00499499
0.00969554
0.0129916
0.0104689
-0.00110695
-0.00313805
-0.00311913
-0.00251011
-0.00103958
0.00179434
0.00603289
0.0109661
0.0141747
0.0104898
0.000567024
-0.00191509
-0.00205009
-0.0016059
-0.000266207
0.00252878
0.00687767
0.0119294
0.0150271
0.0106476
0.0014964
-0.00121139
-0.00143474
-0.00108587
0.000180979
0.00295726
0.00733777
0.0124237
0.0154525
0.0107766
0.00149633
-0.00121145
-0.00143479
-0.00108591
0.000180947
0.00295724
0.00733775
0.0124237
0.0154525
0.0107766
0.000566824
-0.00191528
-0.00205025
-0.00160602
-0.000266309
0.0025287
0.0068776
0.0119294
0.0150271
0.0106476
-0.00110728
-0.00313835
-0.00311938
-0.00251032
-0.00103975
0.0017942
0.00603278
0.010966
0.0141746
0.0104897
-0.0030842
-0.00446863
-0.00428371
-0.00350336
-0.00189964
0.000912317
0.00499486
0.00969543
0.0129915
0.0104688
-0.00421749
-0.00487422
-0.00460794
-0.00382677
-0.00227001
0.000395212
0.00421451
0.00859574
0.0119519
0.0110852
-0.0101387
-0.0107637
-0.010552
-0.0100073
-0.00868049
-0.00579732
-0.0007092
0.00632996
0.0129658
0.01411
-0.00869159
-0.0101991
-0.0100967
-0.0095793
-0.0082324
-0.00522272
0.000167082
0.00775631
0.0145153
0.0138564
-0.00625954
-0.00858007
-0.0087949
-0.00868937
-0.00778817
-0.00507395
0.000306283
0.00830198
0.0153433
0.0139286
-0.00423304
-0.00711682
-0.0076168
-0.00788389
-0.00736807
-0.00491071
0.000399776
0.00860525
0.0157932
0.0140387
-0.00312104
-0.00628461
-0.00694482
-0.00741943
-0.00711008
-0.00477584
0.000463303
0.00873426
0.0159717
0.0141048
-0.00312108
-0.00628465
-0.00694486
-0.00741946
-0.00711011
-0.00477587
0.000463282
0.00873425
0.0159717
0.0141048
-0.00423318
-0.00711695
-0.00761691
-0.00788399
-0.00736816
-0.00491079
0.000399717
0.0086052
0.0157932
0.0140387
-0.00625977
-0.00858028
-0.00879508
-0.00868953
-0.00778831
-0.00507407
0.000306193
0.00830191
0.0153432
0.0139286
-0.00869189
-0.0101994
-0.0100969
-0.0095795
-0.00823257
-0.00522285
0.000166979
0.00775623
0.0145152
0.0138564
-0.0101391
-0.0107639
-0.0105522
-0.0100075
-0.00868066
-0.00579746
-0.000709308
0.00632987
0.0129657
0.01411
-0.0194617
-0.0195516
-0.0190839
-0.0186912
-0.0176643
-0.0146082
-0.0078652
0.00319224
0.015744
0.0222831
-0.0176946
-0.0188683
-0.0186111
-0.0183848
-0.0175705
-0.0147775
-0.00816472
0.00343751
0.0166296
0.0226522
-0.0148812
-0.017048
-0.0173609
-0.0179552
-0.0181214
-0.0162464
-0.0101296
0.00197135
0.0161886
0.0227507
-0.0125893
-0.015425
-0.0162143
-0.0174835
-0.0184315
-0.0172485
-0.0114991
0.0008554
0.0156794
0.0227407
-0.0113508
-0.0145129
-0.0155606
-0.0171867
-0.0185292
-0.0177064
-0.0121265
0.000314383
0.0153916
0.0227056
-0.0113508
-0.014513
-0.0155606
-0.0171867
-0.0185292
-0.0177064
-0.0121265
0.000314378
0.0153916
0.0227056
-0.0125894
-0.0154251
-0.0162144
-0.0174835
-0.0184315
-0.0172486
-0.0114992
0.000855386
0.0156794
0.0227407
-0.0148813
-0.0170482
-0.017361
-0.0179553
-0.0181216
-0.0162465
-0.0101296
0.00197133
0.0161886
0.0227507
-0.0176948
-0.0188684
-0.0186113
-0.0183849
-0.0175706
-0.0147776
-0.00816479
0.00343747
0.0166296
0.0226522
-0.0194619
-0.0195518
-0.0190841
-0.0186914
-0.0176645
-0.0146083
-0.00786526
0.0031922
0.0157439
0.0222831
-0.0334238
-0.0313047
-0.0296427
-0.028919
-0.0280598
-0.0249274
-0.0165362
-0.000268738
0.0213444
0.0398905
-0.031145
-0.0304554
-0.0292722
-0.0290771
-0.0289754
-0.0269647
-0.0198028
-0.00364499
0.0191486
0.0400432
-0.0279177
-0.0283883
-0.0281138
-0.029268
-0.0308589
-0.0306696
-0.0248519
-0.00838732
0.0162252
0.0399211
-0.0253983
-0.0266067
-0.0270138
-0.0291739
-0.0319708
-0.0329765
-0.0279553
-0.0112839
0.0143915
0.0398032
-0.0240711
-0.0256277
-0.0263871
-0.0290447
-0.0324096
-0.0339542
-0.0292794
-0.0125305
0.0135883
0.0397268
-0.0240711
-0.0256277
-0.0263871
-0.0290447
-0.0324096
-0.0339542
-0.0292794
-0.0125305
0.0135883
0.0397268
-0.0253984
-0.0266067
-0.0270139
-0.0291739
-0.0319708
-0.0329765
-0.0279553
-0.0112839
0.0143915
0.0398032
-0.0279178
-0.0283884
-0.0281139
-0.0292681
-0.030859
-0.0306696
-0.0248519
-0.00838731
0.0162252
0.0399211
-0.0311452
-0.0304556
-0.0292723
-0.0290773
-0.0289755
-0.0269647
-0.0198028
-0.00364499
0.0191487
0.0400432
-0.0334239
-0.0313049
-0.0296429
-0.0289192
-0.0280599
-0.0249274
-0.0165362
-0.000268754
0.0213444
0.0398905
-0.0560254
-0.0457355
-0.0408055
-0.0384709
-0.0371699
-0.0337313
-0.0241295
-0.00195031
0.0311056
0.0737787
-0.0525824
-0.0442542
-0.0402448
-0.0391911
-0.0394498
-0.0382244
-0.0315178
-0.0108798
0.0234196
0.074181
-0.0483923
-0.041356
-0.0385294
-0.0394087
-0.0420409
-0.0433177
-0.0387406
-0.0180472
0.0186448
0.0754926
-0.0453768
-0.039077
-0.0370424
-0.0391809
-0.0433519
-0.0461043
-0.0426165
-0.021611
0.0165713
0.076736
-0.0438661
-0.0378952
-0.0362509
-0.0389765
-0.0438267
-0.0471964
-0.0441487
-0.0229706
0.0158744
0.0773273
-0.0438661
-0.0378953
-0.0362509
-0.0389765
-0.0438267
-0.0471964
-0.0441487
-0.0229706
0.0158744
0.0773273
-0.0453769
-0.0390771
-0.0370424
-0.039181
-0.043352
-0.0461043
-0.0426166
-0.021611
0.0165713
0.0767361
-0.0483924
-0.0413561
-0.0385295
-0.0394087
-0.0420409
-0.0433177
-0.0387406
-0.0180471
0.0186449
0.0754926
-0.0525825
-0.0442543
-0.0402449
-0.0391912
-0.0394499
-0.0382244
-0.0315178
-0.0108798
0.0234196
0.0741811
-0.0560256
-0.0457357
-0.0408056
-0.0384711
-0.03717
-0.0337313
-0.0241295
-0.00195031
0.0311056
0.0737788
-0.0878739
-0.0603338
-0.0509783
-0.0450443
-0.0420857
-0.037549
-0.0252417
0.00536418
0.051898
0.150892
-0.0801417
-0.0565667
-0.0496487
-0.0461214
-0.0454688
-0.043663
-0.0351263
-0.00550928
0.0453639
0.162363
-0.0737854
-0.051898
-0.0465455
-0.0454726
-0.0477268
-0.0486394
-0.0422686
-0.0110796
0.0461179
0.17119
-0.0698772
-0.0487049
-0.0442141
-0.0446428
-0.0486524
-0.0511285
-0.0456446
-0.0131473
0.0472477
0.176731
-0.0680933
-0.0471713
-0.0430714
-0.0441741
-0.0489483
-0.0520808
-0.0469121
-0.0138668
0.0478645
0.179121
-0.0680934
-0.0471713
-0.0430714
-0.0441741
-0.0489483
-0.0520808
-0.0469121
-0.0138668
0.0478645
0.179121
-0.0698772
-0.0487049
-0.0442142
-0.0446429
-0.0486524
-0.0511286
-0.0456446
-0.0131472
0.0472477
0.176731
-0.0737855
-0.0518981
-0.0465456
-0.0454727
-0.0477268
-0.0486394
-0.0422686
-0.0110796
0.046118
0.17119
-0.0801419
-0.0565668
-0.0496488
-0.0461214
-0.0454688
-0.043663
-0.0351263
-0.00550926
0.0453639
0.162363
-0.087874
-0.060334
-0.0509785
-0.0450444
-0.0420857
-0.0375491
-0.0252418
0.00536419
0.051898
0.150892
-0.198387
-0.073291
-0.0481705
-0.0394037
-0.0348584
-0.0280926
-0.0114051
0.0333781
0.119147
0.32454
-0.186198
-0.0608312
-0.0406033
-0.0361485
-0.0351579
-0.0316668
-0.0174653
0.0300409
0.129431
0.358943
-0.17747
-0.0521809
-0.0341908
-0.03273
-0.0348886
-0.0338319
-0.0206773
0.0298655
0.138514
0.379599
-0.172466
-0.0472873
-0.0302626
-0.0304828
-0.0345016
-0.0348324
-0.0220728
0.030111
0.142947
0.389486
-0.170275
-0.0451662
-0.0285255
-0.0294632
-0.0342972
-0.0352537
-0.0226628
0.030182
0.144591
0.393228
-0.170275
-0.0451662
-0.0285255
-0.0294632
-0.0342972
-0.0352537
-0.0226628
0.030182
0.144591
0.393228
-0.172466
-0.0472874
-0.0302627
-0.0304829
-0.0345017
-0.0348324
-0.0220728
0.030111
0.142947
0.389486
-0.17747
-0.052181
-0.0341909
-0.0327301
-0.0348887
-0.0338319
-0.0206773
0.0298656
0.138514
0.379599
-0.186198
-0.0608313
-0.0406035
-0.0361486
-0.0351579
-0.0316668
-0.0174653
0.030041
0.129431
0.358943
-0.198387
-0.0732912
-0.0481707
-0.0394038
-0.0348584
-0.0280926
-0.0114051
0.0333781
0.119147
0.324541
)
;

boundaryField
{
    top
    {
        type            zeroGradient;
    }
    others
    {
        type            zeroGradient;
    }
}


// ************************************************************************* //
