/*--------------------------------*- C++ -*----------------------------------*\
  =========                 |
  \\      /  F ield         | OpenFOAM: The Open Source CFD Toolbox
   \\    /   O peration     | Website:  https://openfoam.org
    \\  /    A nd           | Version:  9
     \\/     M anipulation  |
\*---------------------------------------------------------------------------*/
FoamFile
{
    format      ascii;
    class       volVectorField;
    location    "0.43";
    object      U;
}
// * * * * * * * * * * * * * * * * * * * * * * * * * * * * * * * * * * * * * //

dimensions      [0 1 -1 0 0 0 0];

internalField   nonuniform List<vector> 
1000
(
(-5.35208e-05 -0.000421588 0.0003582)
(-0.0016015 -0.000348232 0.00104851)
(-0.00477088 -0.000298381 0.00133476)
(-0.00802314 -0.000394907 0.00141109)
(-0.010722 -0.000664351 0.00131752)
(-0.0120387 -0.00107364 0.000986126)
(-0.0111416 -0.00149093 0.000404714)
(-0.00775843 -0.00166468 -0.000227235)
(-0.0027017 -0.001344 -0.00040387)
(3.40771e-05 -0.000394962 0.000224816)
(-0.000272602 -0.00142384 0.000600783)
(-0.00359876 -0.00164218 0.00215555)
(-0.0100281 -0.00167 0.00276773)
(-0.0164641 -0.00195469 0.00276038)
(-0.0215909 -0.0026127 0.00224401)
(-0.0238788 -0.00356305 0.00114198)
(-0.0218589 -0.00447306 -0.00044969)
(-0.0151404 -0.00473675 -0.00188749)
(-0.00546884 -0.00380811 -0.00193153)
(-0.000129808 -0.00139177 3.62574e-05)
(-0.000431365 -0.00205261 0.000356584)
(-0.00487436 -0.00277385 0.00223301)
(-0.0132705 -0.00298118 0.00296802)
(-0.0215604 -0.00335069 0.00284592)
(-0.028022 -0.00407694 0.00198445)
(-0.0307058 -0.00507295 0.000315339)
(-0.0277632 -0.00592236 -0.00196381)
(-0.018811 -0.00601408 -0.00378898)
(-0.0063308 -0.00482654 -0.00341795)
(0.000146757 -0.0020479 -0.000222537)
(-0.000514198 -0.00169532 4.03282e-05)
(-0.0056128 -0.00241737 0.0019758)
(-0.0151799 -0.00263839 0.00274075)
(-0.0245645 -0.00292784 0.0025389)
(-0.0317909 -0.00345414 0.00146474)
(-0.0346013 -0.00415219 -0.000550084)
(-0.0309373 -0.00469007 -0.00322351)
(-0.02053 -0.00466657 -0.00520077)
(-0.00637504 -0.00374746 -0.00443415)
(0.000524188 -0.00169504 -0.000385281)
(-0.000549185 -0.000646045 -0.000149639)
(-0.00594894 -0.000940387 0.00177847)
(-0.0160605 -0.00103194 0.00254783)
(-0.0259527 -0.00113839 0.00230949)
(-0.0335232 -0.00132429 0.00113789)
(-0.0363654 -0.00156527 -0.00103924)
(-0.0323192 -0.00174687 -0.00387812)
(-0.0211906 -0.00172389 -0.0058978)
(-0.00625981 -0.00138639 -0.0049121)
(0.000759364 -0.000644996 -0.000454683)
(-0.000549185 0.000646091 -0.000149639)
(-0.00594894 0.000940422 0.00177847)
(-0.0160605 0.00103197 0.00254783)
(-0.0259527 0.00113841 0.00230949)
(-0.0335232 0.0013243 0.00113789)
(-0.0363654 0.00156528 -0.00103924)
(-0.0323192 0.00174688 -0.00387812)
(-0.0211906 0.00172389 -0.0058978)
(-0.00625981 0.00138639 -0.0049121)
(0.000759364 0.000645001 -0.000454684)
(-0.000514197 0.00169537 4.03304e-05)
(-0.0056128 0.0024174 0.0019758)
(-0.01518 0.00263842 0.00274075)
(-0.0245646 0.00292786 0.0025389)
(-0.0317909 0.00345416 0.00146474)
(-0.0346013 0.0041522 -0.000550085)
(-0.0309373 0.00469008 -0.00322351)
(-0.02053 0.00466658 -0.00520077)
(-0.00637504 0.00374747 -0.00443415)
(0.000524188 0.00169505 -0.000385282)
(-0.000431362 0.00205268 0.000356589)
(-0.00487437 0.00277389 0.00223302)
(-0.0132705 0.00298121 0.00296803)
(-0.0215604 0.00335071 0.00284592)
(-0.028022 0.00407695 0.00198445)
(-0.0307058 0.00507296 0.000315338)
(-0.0277632 0.00592236 -0.00196381)
(-0.018811 0.00601409 -0.00378898)
(-0.0063308 0.00482654 -0.00341795)
(0.000146757 0.00204791 -0.000222538)
(-0.000272594 0.00142391 0.000600792)
(-0.00359878 0.00164221 0.00215556)
(-0.0100282 0.00167002 0.00276774)
(-0.0164641 0.0019547 0.00276038)
(-0.021591 0.00261271 0.00224401)
(-0.0238788 0.00356305 0.00114198)
(-0.0218589 0.00447306 -0.000449691)
(-0.0151404 0.00473675 -0.00188749)
(-0.00546884 0.00380811 -0.00193153)
(-0.000129807 0.00139177 3.62561e-05)
(-5.3536e-05 0.000421609 0.000358187)
(-0.00160156 0.000348231 0.00104852)
(-0.00477094 0.000298384 0.00133476)
(-0.00802318 0.00039491 0.00141109)
(-0.010722 0.000664354 0.00131752)
(-0.0120387 0.00107364 0.000986125)
(-0.0111416 0.00149093 0.000404713)
(-0.00775844 0.00166468 -0.000227235)
(-0.0027017 0.001344 -0.000403871)
(3.40776e-05 0.000394963 0.000224815)
(-0.000679062 -0.00120696 0.00322893)
(-0.00422574 -0.00147051 0.00637971)
(-0.010196 -0.00148477 0.00745732)
(-0.0161463 -0.00153968 0.00742557)
(-0.0210057 -0.00173237 0.0064578)
(-0.0234181 -0.00206796 0.00436852)
(-0.0219987 -0.00241764 0.00123538)
(-0.0160862 -0.00246031 -0.00199992)
(-0.00675024 -0.00181076 -0.00328983)
(-0.000737175 -0.00022965 -0.000918885)
(-0.00196372 -0.00341885 0.00533098)
(-0.0105183 -0.00460805 0.0119759)
(-0.0240975 -0.00481885 0.0141199)
(-0.0371839 -0.00501828 0.0133373)
(-0.0472719 -0.0055277 0.0100836)
(-0.0516578 -0.00633 0.00426088)
(-0.0478276 -0.00708431 -0.00342115)
(-0.0348359 -0.00698649 -0.0102259)
(-0.0152922 -0.00524124 -0.0112369)
(-0.00219771 -0.0013421 -0.00332602)
(-0.00283346 -0.00435437 0.00522385)
(-0.0147338 -0.00636842 0.0131205)
(-0.0332332 -0.00682201 0.0155393)
(-0.050658 -0.00710325 0.0139554)
(-0.0636142 -0.00767986 0.00886332)
(-0.0686811 -0.00851281 0.000301796)
(-0.0627902 -0.00915371 -0.0103396)
(-0.045052 -0.00879994 -0.0188455)
(-0.0193388 -0.00672933 -0.0183385)
(-0.00258349 -0.00239471 -0.00536934)
(-0.00331373 -0.00340897 0.00456798)
(-0.0171979 -0.0051846 0.0127054)
(-0.0386425 -0.00561018 0.0150906)
(-0.0585747 -0.00583099 0.0129261)
(-0.0730696 -0.00623753 0.00665082)
(-0.0782579 -0.00679692 -0.00357884)
(-0.0708194 -0.00712705 -0.0159038)
(-0.0501171 -0.00675488 -0.0250784)
(-0.0208863 -0.00522329 -0.0231011)
(-0.00246399 -0.00208754 -0.00665217)
(-0.00351652 -0.00127005 0.00411219)
(-0.0183047 -0.00196307 0.0122272)
(-0.0411135 -0.00213252 0.0145497)
(-0.0621862 -0.00221244 0.0120999)
(-0.0773453 -0.00235158 0.00526763)
(-0.0825026 -0.00253821 -0.00572459)
(-0.0742531 -0.00263148 -0.0187605)
(-0.0521403 -0.00247858 -0.0281263)
(-0.0213455 -0.00192869 -0.0253386)
(-0.00231026 -0.000809364 -0.00722875)
(-0.00351652 0.00127009 0.00411219)
(-0.0183047 0.00196309 0.0122272)
(-0.0411135 0.00213253 0.0145497)
(-0.0621862 0.00221245 0.0120999)
(-0.0773453 0.00235159 0.00526763)
(-0.0825026 0.00253822 -0.00572459)
(-0.0742531 0.00263148 -0.0187605)
(-0.0521403 0.00247859 -0.0281263)
(-0.0213455 0.0019287 -0.0253386)
(-0.00231026 0.00080937 -0.00722875)
(-0.00331373 0.003409 0.00456798)
(-0.0171979 0.00518462 0.0127054)
(-0.0386425 0.00561019 0.0150906)
(-0.0585747 0.00583099 0.0129261)
(-0.0730696 0.00623754 0.00665082)
(-0.0782579 0.00679693 -0.00357884)
(-0.0708194 0.00712706 -0.0159038)
(-0.0501171 0.00675489 -0.0250784)
(-0.0208863 0.0052233 -0.0231011)
(-0.00246399 0.00208754 -0.00665217)
(-0.00283345 0.00435441 0.00522385)
(-0.0147337 0.00636843 0.0131205)
(-0.0332332 0.00682202 0.0155393)
(-0.050658 0.00710326 0.0139554)
(-0.0636142 0.00767987 0.00886332)
(-0.0686811 0.00851282 0.000301794)
(-0.0627902 0.00915371 -0.0103396)
(-0.045052 0.00879995 -0.0188455)
(-0.0193388 0.00672933 -0.0183385)
(-0.00258349 0.00239471 -0.00536934)
(-0.00196371 0.00341888 0.00533097)
(-0.0105183 0.00460806 0.0119759)
(-0.0240975 0.00481885 0.0141199)
(-0.0371839 0.00501829 0.0133373)
(-0.0472719 0.00552771 0.0100836)
(-0.0516578 0.00633001 0.00426088)
(-0.0478276 0.00708431 -0.00342116)
(-0.0348359 0.0069865 -0.0102259)
(-0.0152922 0.00524124 -0.0112369)
(-0.00219771 0.00134211 -0.00332602)
(-0.000679059 0.00120696 0.00322888)
(-0.00422576 0.0014705 0.00637969)
(-0.010196 0.00148477 0.0074573)
(-0.0161463 0.00153968 0.00742556)
(-0.0210057 0.00173237 0.00645779)
(-0.0234181 0.00206796 0.00436852)
(-0.0219987 0.00241765 0.00123538)
(-0.0160862 0.00246031 -0.00199992)
(-0.00675024 0.00181076 -0.00328983)
(-0.000737175 0.000229651 -0.000918885)
(-0.00114109 -0.00191234 0.00925655)
(-0.00609617 -0.00243583 0.0164285)
(-0.0139371 -0.00244308 0.0185328)
(-0.0217316 -0.00236168 0.0180278)
(-0.028437 -0.0023674 0.0153385)
(-0.0325044 -0.00254126 0.0100962)
(-0.0319449 -0.00279835 0.0024104)
(-0.025087 -0.00283146 -0.00579044)
(-0.0121912 -0.00207803 -0.00994519)
(-0.00215909 -2.05049e-05 -0.00511202)
(-0.00336816 -0.00519152 0.0153109)
(-0.0160488 -0.00710059 0.0299769)
(-0.034973 -0.0072417 0.0339366)
(-0.0530012 -0.00699325 0.0312583)
(-0.0673452 -0.00689755 0.0230058)
(-0.0747609 -0.00711965 0.00906675)
(-0.0716691 -0.00742769 -0.00911838)
(-0.0554639 -0.00720946 -0.025971)
(-0.027506 -0.00539939 -0.0305202)
(-0.00531959 -0.000872491 -0.0132677)
(-0.0049367 -0.00635151 0.0163084)
(-0.0230169 -0.00927517 0.0336223)
(-0.0494147 -0.00958104 0.0378337)
(-0.0738239 -0.00919694 0.0330165)
(-0.0923167 -0.00886275 0.0204001)
(-0.100731 -0.00874013 0.000275314)
(-0.0949178 -0.00861721 -0.0244472)
(-0.0722342 -0.00805957 -0.0453839)
(-0.0352064 -0.00621992 -0.0473817)
(-0.00653868 -0.0018726 -0.0192215)
(-0.00583824 -0.00485021 0.0158071)
(-0.0271727 -0.00733055 0.0336854)
(-0.0580669 -0.00761226 0.0376115)
(-0.0861047 -0.00726149 0.0312623)
(-0.106668 -0.00687274 0.0158678)
(-0.115132 -0.00655796 -0.00790263)
(-0.107177 -0.00621576 -0.0361478)
(-0.0804796 -0.00568804 -0.0586588)
(-0.0384802 -0.00448914 -0.0580805)
(-0.00678455 -0.00165327 -0.0227667)
(-0.00622822 -0.00178459 0.0152998)
(-0.0290481 -0.00273671 0.033176)
(-0.0620127 -0.00284702 0.0368666)
(-0.0916657 -0.00270486 0.029766)
(-0.11306 -0.00253415 0.0130843)
(-0.121373 -0.00237646 -0.0122905)
(-0.112282 -0.00220533 -0.041956)
(-0.0837252 -0.00199794 -0.0649122)
(-0.0396098 -0.00159855 -0.0629312)
(-0.00677199 -0.000641301 -0.024318)
(-0.00622822 0.00178462 0.0152998)
(-0.0290481 0.00273672 0.033176)
(-0.0620127 0.00284703 0.0368666)
(-0.0916657 0.00270487 0.029766)
(-0.11306 0.00253416 0.0130843)
(-0.121373 0.00237647 -0.0122905)
(-0.112282 0.00220533 -0.041956)
(-0.0837252 0.00199795 -0.0649122)
(-0.0396098 0.00159855 -0.0629312)
(-0.00677199 0.000641305 -0.024318)
(-0.00583824 0.00485024 0.0158071)
(-0.0271727 0.00733056 0.0336854)
(-0.0580669 0.00761226 0.0376115)
(-0.0861047 0.0072615 0.0312623)
(-0.106668 0.00687274 0.0158678)
(-0.115132 0.00655797 -0.00790263)
(-0.107177 0.00621577 -0.0361478)
(-0.0804796 0.00568805 -0.0586588)
(-0.0384802 0.00448914 -0.0580805)
(-0.00678455 0.00165327 -0.0227667)
(-0.0049367 0.00635153 0.0163084)
(-0.0230169 0.00927518 0.0336223)
(-0.0494147 0.00958104 0.0378337)
(-0.0738239 0.00919695 0.0330165)
(-0.0923167 0.00886276 0.0204001)
(-0.100731 0.00874013 0.000275314)
(-0.0949178 0.00861722 -0.0244472)
(-0.0722342 0.00805957 -0.0453839)
(-0.0352064 0.00621992 -0.0473817)
(-0.00653868 0.0018726 -0.0192215)
(-0.00336816 0.00519154 0.0153109)
(-0.0160488 0.00710059 0.0299769)
(-0.034973 0.0072417 0.0339366)
(-0.0530012 0.00699326 0.0312583)
(-0.0673452 0.00689756 0.0230058)
(-0.0747609 0.00711965 0.00906675)
(-0.0716691 0.0074277 -0.00911838)
(-0.0554639 0.00720946 -0.025971)
(-0.027506 0.0053994 -0.0305202)
(-0.00531959 0.000872493 -0.0132677)
(-0.00114109 0.00191234 0.00925649)
(-0.00609619 0.00243583 0.0164284)
(-0.0139371 0.00244308 0.0185328)
(-0.0217316 0.00236168 0.0180277)
(-0.028437 0.0023674 0.0153385)
(-0.0325044 0.00254127 0.0100962)
(-0.0319449 0.00279835 0.00241039)
(-0.025087 0.00283146 -0.00579044)
(-0.0121912 0.00207803 -0.00994519)
(-0.00215909 2.05053e-05 -0.00511202)
(-0.00155968 -0.00259683 0.0173487)
(-0.00764267 -0.00328993 0.0293634)
(-0.0168841 -0.00314889 0.0324212)
(-0.0262234 -0.00273781 0.0312348)
(-0.0350584 -0.00232413 0.0265997)
(-0.0419359 -0.00211545 0.0177059)
(-0.0441278 -0.00220084 0.00416936)
(-0.0380823 -0.00245149 -0.0114586)
(-0.0218038 -0.00204513 -0.0212245)
(-0.00530828 9.5371e-05 -0.0137649)
(-0.00462366 -0.00690261 0.0287333)
(-0.0207884 -0.00927028 0.0531124)
(-0.0440872 -0.00890694 0.0587711)
(-0.066401 -0.00757119 0.0536402)
(-0.085405 -0.00605556 0.0395968)
(-0.0978146 -0.00487898 0.0160388)
(-0.098777 -0.0043396 -0.0157781)
(-0.0825818 -0.00451062 -0.0478759)
(-0.0469556 -0.00401592 -0.0610779)
(-0.011405 -0.000342116 -0.0323645)
(-0.00680934 -0.00826046 0.0314856)
(-0.030185 -0.0117364 0.0602731)
(-0.0631659 -0.0112812 0.0661093)
(-0.0935622 -0.0092968 0.0573345)
(-0.117794 -0.00684154 0.0362283)
(-0.131586 -0.00456625 0.00282481)
(-0.129557 -0.00311147 -0.0396863)
(-0.105875 -0.00301309 -0.0793672)
(-0.059181 -0.00324442 -0.090371)
(-0.0139414 -0.000959129 -0.0443157)
(-0.00807906 -0.00620996 0.0315363)
(-0.0358147 -0.00909349 0.0613893)
(-0.0745786 -0.00872145 0.0666596)
(-0.109404 -0.00701884 0.0553699)
(-0.135933 -0.00483425 0.0299739)
(-0.149521 -0.00270068 -0.00885487)
(-0.144839 -0.00129749 -0.0565237)
(-0.116572 -0.00120666 -0.0989777)
(-0.06432 -0.00177365 -0.107267)
(-0.0147803 -0.000818222 -0.0508199)
(-0.00862937 -0.00226572 0.0311825)
(-0.0383424 -0.00336041 0.0611401)
(-0.079729 -0.00321688 0.0659974)
(-0.116449 -0.00255529 0.0535103)
(-0.143779 -0.00169719 0.0262163)
(-0.156959 -0.000850953 -0.0148426)
(-0.150845 -0.000287905 -0.0643973)
(-0.120551 -0.000262012 -0.107609)
(-0.0661295 -0.000537235 -0.114427)
(-0.0150155 -0.000309864 -0.0534986)
(-0.00862937 0.00226574 0.0311825)
(-0.0383424 0.00336042 0.0611401)
(-0.0797289 0.00321688 0.0659974)
(-0.116449 0.00255529 0.0535103)
(-0.143779 0.00169719 0.0262163)
(-0.156959 0.000850956 -0.0148426)
(-0.150845 0.000287908 -0.0643973)
(-0.120551 0.000262015 -0.107609)
(-0.0661295 0.000537238 -0.114427)
(-0.0150155 0.000309868 -0.0534986)
(-0.00807905 0.00620998 0.0315363)
(-0.0358146 0.0090935 0.0613893)
(-0.0745786 0.00872145 0.0666596)
(-0.109404 0.00701884 0.0553699)
(-0.135933 0.00483425 0.0299739)
(-0.149521 0.00270068 -0.00885486)
(-0.144839 0.00129749 -0.0565237)
(-0.116572 0.00120666 -0.0989777)
(-0.06432 0.00177365 -0.107267)
(-0.0147803 0.000818226 -0.0508199)
(-0.00680934 0.00826048 0.0314856)
(-0.030185 0.0117364 0.0602731)
(-0.0631659 0.0112812 0.0661093)
(-0.0935622 0.0092968 0.0573345)
(-0.117794 0.00684154 0.0362283)
(-0.131586 0.00456625 0.00282481)
(-0.129557 0.00311147 -0.0396863)
(-0.105875 0.00301309 -0.0793672)
(-0.059181 0.00324442 -0.090371)
(-0.0139414 0.000959132 -0.0443157)
(-0.00462366 0.00690262 0.0287333)
(-0.0207884 0.00927028 0.0531123)
(-0.0440872 0.00890694 0.0587711)
(-0.066401 0.00757119 0.0536402)
(-0.085405 0.00605556 0.0395968)
(-0.0978146 0.00487899 0.0160388)
(-0.098777 0.0043396 -0.0157781)
(-0.0825818 0.00451062 -0.0478759)
(-0.0469556 0.00401593 -0.0610779)
(-0.011405 0.000342117 -0.0323645)
(-0.00155968 0.00259683 0.0173487)
(-0.00764268 0.00328993 0.0293634)
(-0.0168841 0.00314889 0.0324212)
(-0.0262234 0.00273781 0.0312348)
(-0.0350584 0.00232413 0.0265997)
(-0.0419359 0.00211545 0.0177059)
(-0.0441278 0.00220084 0.00416936)
(-0.0380823 0.00245149 -0.0114586)
(-0.0218038 0.00204513 -0.0212245)
(-0.00530829 -9.53715e-05 -0.0137649)
(-0.00219534 -0.00323307 0.0276011)
(-0.00931126 -0.00395334 0.0447625)
(-0.0192705 -0.00340413 0.0482534)
(-0.0294841 -0.00227578 0.0459677)
(-0.0403794 -0.000952068 0.0391801)
(-0.0511779 0.000149283 0.0263044)
(-0.0585585 0.00054336 0.00569201)
(-0.0562315 -0.000140155 -0.0203592)
(-0.0381541 -0.000975862 -0.0401331)
(-0.0117619 -1.47633e-05 -0.0309491)
(-0.00606781 -0.00843962 0.0455431)
(-0.0252182 -0.0108751 0.0806223)
(-0.0514562 -0.00928382 0.087436)
(-0.0766074 -0.00575331 0.0793768)
(-0.0997635 -0.0014076 0.0593289)
(-0.118484 0.00257578 0.0255396)
(-0.126948 0.00468426 -0.0223898)
(-0.115473 0.00339583 -0.0757556)
(-0.0761225 0.00014651 -0.106504)
(-0.0226458 -0.000123671 -0.0676186)
(-0.00872553 -0.00990825 0.0505552)
(-0.0364513 -0.013438 0.0921667)
(-0.0739313 -0.0112994 0.0992597)
(-0.108111 -0.00630927 0.0863495)
(-0.136795 -2.42194e-05 0.0570443)
(-0.156657 0.00589195 0.0103653)
(-0.161645 0.00916676 -0.0521115)
(-0.142372 0.00756054 -0.117413)
(-0.0921581 0.00250871 -0.149009)
(-0.0268989 -0.000153492 -0.0882686)
(-0.0102353 -0.00734699 0.0514608)
(-0.0430672 -0.0102402 0.0948351)
(-0.0870974 -0.00850139 0.101245)
(-0.125892 -0.00438067 0.0851851)
(-0.156441 0.000822611 0.0507288)
(-0.175194 0.00567809 -0.00225727)
(-0.176766 0.00824369 -0.0708226)
(-0.152945 0.00676808 -0.140225)
(-0.0982425 0.00254196 -0.17063)
(-0.0284842 -4.78799e-05 -0.0983527)
(-0.0108751 -0.00266055 0.05142)
(-0.0459769 -0.00375094 0.0950996)
(-0.0928905 -0.00309136 0.101014)
(-0.133516 -0.00152299 0.0835215)
(-0.164489 0.000452481 0.0469518)
(-0.182267 0.00227373 -0.0083338)
(-0.182057 0.00320233 -0.0788672)
(-0.156433 0.00260263 -0.149393)
(-0.100332 0.00100791 -0.179067)
(-0.0290566 -1.10578e-06 -0.102244)
(-0.0108751 0.00266057 0.05142)
(-0.0459769 0.00375094 0.0950996)
(-0.0928905 0.00309136 0.101014)
(-0.133516 0.00152298 0.0835215)
(-0.164489 -0.000452481 0.0469518)
(-0.182267 -0.00227373 -0.0083338)
(-0.182057 -0.00320232 -0.0788672)
(-0.156433 -0.00260263 -0.149393)
(-0.100332 -0.0010079 -0.179067)
(-0.0290566 1.11008e-06 -0.102244)
(-0.0102353 0.00734701 0.0514608)
(-0.0430672 0.0102402 0.0948351)
(-0.0870974 0.00850139 0.101245)
(-0.125892 0.00438067 0.0851851)
(-0.156441 -0.000822609 0.0507288)
(-0.175194 -0.00567808 -0.00225727)
(-0.176766 -0.00824369 -0.0708226)
(-0.152945 -0.00676807 -0.140225)
(-0.0982425 -0.00254195 -0.17063)
(-0.0284842 4.78837e-05 -0.0983527)
(-0.00872553 0.00990826 0.0505551)
(-0.0364513 0.013438 0.0921667)
(-0.0739313 0.0112994 0.0992597)
(-0.108111 0.00630927 0.0863495)
(-0.136795 2.42222e-05 0.0570443)
(-0.156657 -0.00589195 0.0103653)
(-0.161645 -0.00916675 -0.0521115)
(-0.142372 -0.00756053 -0.117413)
(-0.0921581 -0.00250871 -0.149009)
(-0.0268989 0.000153495 -0.0882686)
(-0.00606781 0.00843963 0.0455431)
(-0.0252182 0.0108751 0.0806223)
(-0.0514562 0.00928382 0.087436)
(-0.0766074 0.00575331 0.0793768)
(-0.0997635 0.00140761 0.0593289)
(-0.118484 -0.00257578 0.0255396)
(-0.126948 -0.00468425 -0.0223898)
(-0.115473 -0.00339582 -0.0757556)
(-0.0761225 -0.000146508 -0.106504)
(-0.0226458 0.000123673 -0.0676186)
(-0.00219534 0.00323307 0.0276011)
(-0.00931127 0.00395334 0.0447625)
(-0.0192705 0.00340413 0.0482534)
(-0.0294841 0.00227578 0.0459677)
(-0.0403794 0.00095207 0.0391801)
(-0.0511779 -0.000149283 0.0263044)
(-0.0585585 -0.00054336 0.00569201)
(-0.0562315 0.000140156 -0.0203592)
(-0.0381541 0.000975862 -0.0401331)
(-0.0117619 1.47636e-05 -0.0309491)
(-0.00362672 -0.00383211 0.0404707)
(-0.0119544 -0.0043497 0.0616667)
(-0.0212029 -0.00300019 0.063978)
(-0.0305064 -0.000609497 0.0595112)
(-0.0421648 0.00232817 0.0501635)
(-0.0569838 0.00515684 0.0333385)
(-0.071764 0.00672527 0.0053038)
(-0.077267 0.00558787 -0.0337324)
(-0.0616644 0.0022271 -0.0691008)
(-0.0225325 -0.000347806 -0.0624911)
(-0.00837092 -0.00976081 0.0659338)
(-0.0299867 -0.0116961 0.110859)
(-0.0561643 -0.00791456 0.117065)
(-0.0802417 -0.000857282 0.105215)
(-0.103987 0.00790063 0.0795344)
(-0.12727 0.0162738 0.0366618)
(-0.144725 0.020855 -0.0270929)
(-0.143405 0.0176722 -0.10594)
(-0.109401 0.00760741 -0.165688)
(-0.0383876 -0.000835544 -0.127492)
(-0.0112395 -0.0111912 0.073349)
(-0.0419433 -0.0141486 0.127241)
(-0.0796942 -0.00927935 0.134285)
(-0.112244 0.0001017 0.117225)
(-0.140112 0.0116361 0.0814614)
(-0.162579 0.0221836 0.0244508)
(-0.174867 0.0271718 -0.0559899)
(-0.165546 0.0223012 -0.15085)
(-0.123805 0.0095904 -0.217579)
(-0.0431476 -0.000502998 -0.159186)
(-0.0127587 -0.00816791 0.0751495)
(-0.0486683 -0.0106195 0.131681)
(-0.0928577 -0.00679316 0.138304)
(-0.12922 0.000646466 0.11818)
(-0.157516 0.00967769 0.0774974)
(-0.177183 0.0176049 0.0146288)
(-0.184908 0.0207555 -0.0717648)
(-0.171412 0.0163978 -0.171916)
(-0.127964 0.00685959 -0.240603)
(-0.0449219 -0.000172129 -0.173162)
(-0.0133659 -0.00293314 0.0754449)
(-0.0515013 -0.00385826 0.132561)
(-0.0983866 -0.00243398 0.138791)
(-0.136055 0.000339298 0.117355)
(-0.163965 0.00367234 0.0748642)
(-0.181881 0.00652949 0.010178)
(-0.187509 0.00753009 -0.0778728)
(-0.172711 0.00581495 -0.179587)
(-0.12935 0.00239322 -0.248976)
(-0.0456792 -2.18683e-05 -0.178345)
(-0.0133659 0.00293315 0.0754449)
(-0.0515013 0.00385826 0.132561)
(-0.0983866 0.00243397 0.138791)
(-0.136055 -0.000339302 0.117355)
(-0.163965 -0.00367234 0.0748642)
(-0.181881 -0.00652948 0.010178)
(-0.187509 -0.00753009 -0.0778728)
(-0.172711 -0.00581495 -0.179587)
(-0.12935 -0.00239322 -0.248976)
(-0.0456792 2.18726e-05 -0.178345)
(-0.0127587 0.00816792 0.0751495)
(-0.0486683 0.0106195 0.131681)
(-0.0928577 0.00679316 0.138304)
(-0.12922 -0.000646468 0.11818)
(-0.157516 -0.00967769 0.0774974)
(-0.177183 -0.0176048 0.0146288)
(-0.184908 -0.0207555 -0.0717648)
(-0.171412 -0.0163978 -0.171916)
(-0.127964 -0.00685959 -0.240603)
(-0.0449219 0.000172132 -0.173162)
(-0.0112395 0.0111912 0.073349)
(-0.0419433 0.0141486 0.127241)
(-0.0796942 0.00927935 0.134285)
(-0.112244 -0.0001017 0.117225)
(-0.140112 -0.0116361 0.0814614)
(-0.162579 -0.0221836 0.0244508)
(-0.174867 -0.0271718 -0.0559899)
(-0.165546 -0.0223012 -0.15085)
(-0.123805 -0.00959039 -0.217579)
(-0.0431476 0.000503001 -0.159186)
(-0.00837092 0.00976081 0.0659338)
(-0.0299867 0.0116961 0.110859)
(-0.0561643 0.00791456 0.117065)
(-0.0802417 0.000857285 0.105215)
(-0.103987 -0.00790062 0.0795344)
(-0.12727 -0.0162738 0.0366618)
(-0.144725 -0.020855 -0.0270929)
(-0.143405 -0.0176721 -0.10594)
(-0.109401 -0.00760741 -0.165688)
(-0.0383876 0.000835547 -0.127492)
(-0.00362672 0.00383211 0.0404706)
(-0.0119544 0.0043497 0.0616666)
(-0.0212029 0.00300019 0.063978)
(-0.0305064 0.000609498 0.0595112)
(-0.0421648 -0.00232817 0.0501635)
(-0.0569838 -0.00515684 0.0333385)
(-0.071764 -0.00672527 0.0053038)
(-0.077267 -0.00558786 -0.0337324)
(-0.0616644 -0.0022271 -0.0691008)
(-0.0225325 0.000347807 -0.0624911)
(-0.00739937 -0.00464383 0.0580919)
(-0.0177295 -0.00475612 0.0785982)
(-0.0228755 -0.00221554 0.0761471)
(-0.0272681 0.00187773 0.0673158)
(-0.0359123 0.00691254 0.0547461)
(-0.0521493 0.0120883 0.0347141)
(-0.0745852 0.015555 0.000897384)
(-0.0919142 0.0142186 -0.0515503)
(-0.0870537 0.0072276 -0.10771)
(-0.0359532 -0.0012572 -0.11545)
(-0.0134825 -0.0112806 0.0917624)
(-0.0373567 -0.012242 0.141023)
(-0.0572236 -0.0055136 0.142188)
(-0.072049 0.00573293 0.124709)
(-0.0876557 0.0194229 0.0944567)
(-0.107772 0.0327409 0.0465606)
(-0.130326 0.0404212 -0.0269214)
(-0.141827 0.0352012 -0.129169)
(-0.127367 0.0161312 -0.227766)
(-0.0499087 -0.00395721 -0.217473)
(-0.0162748 -0.0124132 0.100988)
(-0.0484621 -0.0143943 0.161724)
(-0.0785223 -0.00627549 0.164807)
(-0.0992471 0.00766664 0.143066)
(-0.115374 0.0241695 0.103874)
(-0.130512 0.0389285 0.0431053)
(-0.144319 0.0454108 -0.0462539)
(-0.146598 0.0368156 -0.166648)
(-0.129865 0.0150489 -0.279974)
(-0.0510219 -0.0036999 -0.259052)
(-0.0175289 -0.00884285 0.103208)
(-0.0541336 -0.0106048 0.167484)
(-0.0894891 -0.00448953 0.170872)
(-0.112375 0.00609783 0.147048)
(-0.126917 0.0183528 0.104261)
(-0.137188 0.0286321 0.0390929)
(-0.145047 0.0320216 -0.055086)
(-0.143358 0.024558 -0.181476)
(-0.128574 0.00927983 -0.30045)
(-0.0516011 -0.0022451 -0.275888)
(-0.0179661 -0.00313785 0.103617)
(-0.0563348 -0.00381755 0.168748)
(-0.0937383 -0.00158972 0.172052)
(-0.117128 0.00226987 0.147412)
(-0.130453 0.00667604 0.103507)
(-0.138278 0.0102392 0.0372245)
(-0.143812 0.0111876 -0.058119)
(-0.141356 0.00832288 -0.186506)
(-0.128356 0.00302692 -0.30773)
(-0.0521796 -0.00070531 -0.28209)
(-0.0179661 0.00313786 0.103617)
(-0.0563348 0.00381755 0.168748)
(-0.0937383 0.00158971 0.172052)
(-0.117128 -0.00226987 0.147412)
(-0.130453 -0.00667605 0.103507)
(-0.138278 -0.0102392 0.0372245)
(-0.143812 -0.0111876 -0.058119)
(-0.141356 -0.00832287 -0.186506)
(-0.128356 -0.00302692 -0.30773)
(-0.0521796 0.000705315 -0.28209)
(-0.0175289 0.00884286 0.103208)
(-0.0541336 0.0106048 0.167484)
(-0.0894891 0.00448953 0.170872)
(-0.112375 -0.00609783 0.147048)
(-0.126917 -0.0183528 0.104261)
(-0.137188 -0.0286321 0.0390929)
(-0.145047 -0.0320216 -0.055086)
(-0.143358 -0.024558 -0.181476)
(-0.128574 -0.00927983 -0.30045)
(-0.0516011 0.0022451 -0.275888)
(-0.0162748 0.0124132 0.100988)
(-0.0484621 0.0143943 0.161724)
(-0.0785223 0.00627549 0.164807)
(-0.0992471 -0.00766664 0.143066)
(-0.115374 -0.0241695 0.103874)
(-0.130512 -0.0389285 0.0431053)
(-0.144319 -0.0454108 -0.0462539)
(-0.146598 -0.0368156 -0.166648)
(-0.129865 -0.0150489 -0.279974)
(-0.0510219 0.0036999 -0.259052)
(-0.0134825 0.0112806 0.0917624)
(-0.0373567 0.012242 0.141023)
(-0.0572236 0.0055136 0.142188)
(-0.072049 -0.00573293 0.124709)
(-0.0876557 -0.0194229 0.0944567)
(-0.107772 -0.0327409 0.0465606)
(-0.130326 -0.0404212 -0.0269214)
(-0.141827 -0.0352012 -0.129169)
(-0.127367 -0.0161312 -0.227766)
(-0.0499087 0.00395721 -0.217473)
(-0.00739937 0.00464383 0.0580919)
(-0.0177295 0.00475612 0.0785982)
(-0.0228756 0.00221555 0.0761471)
(-0.0272681 -0.00187773 0.0673158)
(-0.0359123 -0.00691254 0.0547461)
(-0.0521493 -0.0120883 0.0347141)
(-0.0745852 -0.015555 0.000897385)
(-0.0919142 -0.0142186 -0.0515503)
(-0.0870537 -0.0072276 -0.10771)
(-0.0359532 0.0012572 -0.11545)
(-0.0167468 -0.00640076 0.0815949)
(-0.0295731 -0.0063986 0.0917404)
(-0.0206007 -0.00272599 0.0799461)
(-0.0117917 0.00298641 0.0642369)
(-0.00992868 0.00980564 0.0481556)
(-0.020571 0.0171248 0.0268577)
(-0.0464047 0.0229294 -0.00905812)
(-0.0764242 0.0218834 -0.0713062)
(-0.0963436 0.0105742 -0.150507)
(-0.0417667 -0.00576214 -0.194291)
(-0.0263446 -0.0144227 0.121505)
(-0.0529265 -0.0150835 0.164108)
(-0.0505171 -0.00611227 0.154691)
(-0.0403097 0.00807521 0.12885)
(-0.0325188 0.0248341 0.0957635)
(-0.0341598 0.0416317 0.0498416)
(-0.0504122 0.0530815 -0.0211237)
(-0.0709093 0.0477806 -0.133965)
(-0.0963438 0.0199548 -0.271372)
(-0.0361963 -0.013569 -0.324259)
(-0.0293772 -0.014849 0.130813)
(-0.0630565 -0.0167348 0.187698)
(-0.0676698 -0.00675218 0.181857)
(-0.0586598 0.00931769 0.153361)
(-0.0462727 0.0278379 0.113751)
(-0.0373946 0.0447349 0.0580907)
(-0.0400998 0.0535774 -0.0249827)
(-0.0483617 0.0441592 -0.154496)
(-0.0772384 0.0151599 -0.312321)
(-0.028126 -0.0116226 -0.365652)
(-0.0303476 -0.0101445 0.132678)
(-0.0672044 -0.0118815 0.194044)
(-0.0752957 -0.00472067 0.189653)
(-0.066567 0.00684268 0.160528)
(-0.0511753 0.0198899 0.11899)
(-0.0361886 0.0310417 0.060483)
(-0.0320547 0.0356071 -0.0260686)
(-0.0358942 0.0275881 -0.161289)
(-0.069504 0.00849646 -0.32693)
(-0.0264919 -0.00675304 -0.381013)
(-0.0305782 -0.00352591 0.132928)
(-0.0685057 -0.00420037 0.195354)
(-0.0777583 -0.00165155 0.191338)
(-0.0688666 0.00245879 0.162077)
(-0.0520284 0.0070294 0.120135)
(-0.0345719 0.0107974 0.0610395)
(-0.0282267 0.0121043 -0.026413)
(-0.0314896 0.00908812 -0.163713)
(-0.0679521 0.00267741 -0.332309)
(-0.0267548 -0.00209358 -0.386693)
(-0.0305782 0.00352591 0.132928)
(-0.0685057 0.00420037 0.195354)
(-0.0777583 0.00165154 0.191338)
(-0.0688666 -0.00245879 0.162077)
(-0.0520284 -0.0070294 0.120135)
(-0.0345719 -0.0107974 0.0610395)
(-0.0282267 -0.0121043 -0.026413)
(-0.0314896 -0.00908811 -0.163713)
(-0.0679521 -0.0026774 -0.332309)
(-0.0267548 0.00209358 -0.386693)
(-0.0303476 0.0101445 0.132678)
(-0.0672044 0.0118815 0.194044)
(-0.0752957 0.00472067 0.189653)
(-0.0665671 -0.00684269 0.160528)
(-0.0511753 -0.0198899 0.11899)
(-0.0361887 -0.0310417 0.060483)
(-0.0320547 -0.0356071 -0.0260686)
(-0.0358942 -0.0275881 -0.161289)
(-0.069504 -0.00849645 -0.32693)
(-0.0264919 0.00675304 -0.381013)
(-0.0293772 0.014849 0.130813)
(-0.0630565 0.0167348 0.187698)
(-0.0676698 0.00675218 0.181857)
(-0.0586598 -0.00931769 0.153361)
(-0.0462727 -0.0278379 0.113751)
(-0.0373946 -0.0447349 0.0580907)
(-0.0400998 -0.0535774 -0.0249827)
(-0.0483617 -0.0441592 -0.154496)
(-0.0772384 -0.0151599 -0.312321)
(-0.028126 0.0116226 -0.365652)
(-0.0263446 0.0144227 0.121505)
(-0.0529265 0.0150835 0.164108)
(-0.0505171 0.00611227 0.154691)
(-0.0403097 -0.00807521 0.12885)
(-0.0325188 -0.0248341 0.0957635)
(-0.0341598 -0.0416317 0.0498416)
(-0.0504122 -0.0530815 -0.0211237)
(-0.0709093 -0.0477806 -0.133965)
(-0.0963438 -0.0199548 -0.271372)
(-0.0361963 0.013569 -0.324259)
(-0.0167468 0.00640077 0.0815949)
(-0.0295731 0.0063986 0.0917404)
(-0.0206007 0.00272599 0.0799461)
(-0.0117917 -0.00298641 0.0642369)
(-0.00992868 -0.00980564 0.0481556)
(-0.020571 -0.0171248 0.0268577)
(-0.0464047 -0.0229294 -0.00905812)
(-0.0764242 -0.0218834 -0.0713062)
(-0.0963436 -0.0105742 -0.150507)
(-0.0417667 0.00576214 -0.194291)
(-0.0239211 -0.0111785 0.150574)
(-0.0210444 -0.0117 0.0982794)
(0.0262117 -0.00719604 0.0629448)
(0.0598419 -0.000791883 0.0417965)
(0.0806632 0.00643916 0.0256899)
(0.083534 0.0143007 0.00816336)
(0.0619953 0.0216825 -0.0202325)
(0.0250164 0.0211462 -0.0776673)
(-0.0423008 0.00567647 -0.172902)
(-0.00688504 -0.0174728 -0.258976)
(-0.0428578 -0.0227664 0.209888)
(-0.0434457 -0.0253863 0.168738)
(0.0195744 -0.0163426 0.126626)
(0.0743968 -0.00260438 0.0949233)
(0.118796 0.013366 0.0661209)
(0.147224 0.0300443 0.0330735)
(0.14622 0.044845 -0.015913)
(0.127961 0.0435065 -0.106301)
(0.038271 0.0113548 -0.255302)
(0.0431067 -0.0310619 -0.368769)
(-0.0482262 -0.0204408 0.219887)
(-0.0533309 -0.0252293 0.188425)
(0.00855088 -0.0170802 0.149225)
(0.0677735 -0.00350387 0.116496)
(0.1209 0.0125783 0.0841414)
(0.163107 0.0284617 0.0453399)
(0.176265 0.0405354 -0.010659)
(0.172521 0.036612 -0.109861)
(0.0783506 0.00723442 -0.274586)
(0.0623221 -0.0218219 -0.394614)
(-0.0491999 -0.0129422 0.220765)
(-0.0560278 -0.0167764 0.192294)
(0.00448846 -0.0114979 0.154837)
(0.0646758 -0.00246018 0.122615)
(0.120638 0.00817223 0.0897094)
(0.167921 0.0183397 0.0492725)
(0.185956 0.0252323 -0.0091565)
(0.186446 0.021786 -0.111409)
(0.0881585 0.00440172 -0.281475)
(0.0653288 -0.0113044 -0.403421)
(-0.0491905 -0.00433874 0.220489)
(-0.0563317 -0.00574637 0.192583)
(0.00385345 -0.00394382 0.155662)
(0.0644314 -0.000844497 0.123751)
(0.121288 0.00277113 0.0909031)
(0.170046 0.00616611 0.0501723)
(0.1892 0.00833135 -0.00901095)
(0.190011 0.00706533 -0.112491)
(0.0891823 0.00150805 -0.284347)
(0.064932 -0.00332547 -0.406636)
(-0.0491905 0.00433874 0.220489)
(-0.0563317 0.00574637 0.192583)