/*--------------------------------*- C++ -*----------------------------------*\
  =========                 |
  \\      /  F ield         | OpenFOAM: The Open Source CFD Toolbox
   \\    /   O peration     | Website:  https://openfoam.org
    \\  /    A nd           | Version:  9
     \\/     M anipulation  |
\*---------------------------------------------------------------------------*/
FoamFile
{
    format      ascii;
    class       surfaceScalarField;
    location    "0.67";
    object      phi;
}
// * * * * * * * * * * * * * * * * * * * * * * * * * * * * * * * * * * * * * //

dimensions      [0 3 -1 0 0 0 0];

internalField   nonuniform List<scalar> 
2700
(
-5.92618e-08
-1.05728e-07
1.64991e-07
-3.03566e-07
-1.1778e-07
3.62085e-07
-6.27256e-07
-1.1833e-07
4.4202e-07
-9.46e-07
-1.39683e-07
4.58427e-07
-1.17145e-06
-1.92141e-07
4.17588e-07
-1.20528e-06
-2.70075e-07
3.03904e-07
-9.80899e-07
-3.45977e-07
1.216e-07
-5.40734e-07
-3.70108e-07
-7.00571e-08
-1.03689e-07
-2.95864e-07
-1.4118e-07
-9.78446e-08
-5.84399e-09
-1.58668e-07
-2.29643e-07
2.82584e-07
-6.86115e-07
-3.04645e-07
7.14314e-07
-1.35357e-06
-3.2573e-07
8.74854e-07
-1.97972e-06
-3.66864e-07
8.5333e-07
-2.39324e-06
-4.50151e-07
6.71527e-07
-2.4187e-06
-5.64055e-07
3.1944e-07
-1.94677e-06
-6.61702e-07
-1.562e-07
-1.07814e-06
-6.69684e-07
-5.69053e-07
-2.34465e-07
-5.30533e-07
-6.09008e-07
-2.14831e-07
-1.17479e-07
-2.36217e-07
-2.50446e-07
2.5702e-07
-9.56023e-07
-3.56108e-07
7.7127e-07
-1.844e-06
-3.89011e-07
9.51262e-07
-2.65433e-06
-4.31427e-07
8.74888e-07
-3.16206e-06
-5.08127e-07
5.65709e-07
-3.14762e-06
-6.08572e-07
3.00763e-08
-2.48105e-06
-6.8114e-07
-6.47133e-07
-1.32225e-06
-6.69391e-07
-1.1591e-06
-2.50729e-07
-5.28814e-07
-1.07324e-06
-2.32765e-07
-2.32796e-07
-2.88839e-07
-1.58694e-07
1.97087e-07
-1.13535e-06
-2.32445e-07
7.22853e-07
-2.16512e-06
-2.56076e-07
8.96829e-07
-3.08813e-06
-2.8199e-07
7.73577e-07
-3.64448e-06
-3.25673e-07
3.7389e-07
-3.57696e-06
-3.80097e-07
-2.95994e-07
-2.766e-06
-4.17167e-07
-1.07493e-06
-1.41614e-06
-4.03972e-07
-1.61528e-06
-2.23007e-07
-3.19051e-07
-1.4029e-06
-1.46086e-07
-3.09685e-07
-3.15941e-07
1.9045e-13
1.57248e-07
-1.22592e-06
1.55249e-13
6.77536e-07
-2.32563e-06
8.86125e-14
8.43628e-07
-3.30196e-06
2.24563e-14
6.94348e-07
-3.87647e-06
-6.11451e-14
2.48833e-07
-3.77756e-06
-7.0828e-14
-4.79011e-07
-2.88816e-06
-2.56685e-14
-1.30657e-06
-1.44366e-06
5.07357e-14
-1.84847e-06
-1.99198e-07
3.04973e-14
-1.56351e-06
-2.63599e-14
-3.45284e-07
-3.15941e-07
1.58694e-07
1.57248e-07
-1.22592e-06
2.32445e-07
6.77537e-07
-2.32563e-06
2.56076e-07
8.43628e-07
-3.30196e-06
2.8199e-07
6.94348e-07
-3.87647e-06
3.25673e-07
2.48833e-07
-3.77756e-06
3.80097e-07
-4.79011e-07
-2.88816e-06
4.17167e-07
-1.30657e-06
-1.44366e-06
4.03972e-07
-1.84847e-06
-1.99198e-07
3.19051e-07
-1.56351e-06
1.46086e-07
-3.45284e-07
-2.88839e-07
2.50446e-07
1.97087e-07
-1.13535e-06
3.56108e-07
7.22853e-07
-2.16512e-06
3.89012e-07
8.96829e-07
-3.08813e-06
4.31427e-07
7.73577e-07
-3.64448e-06
5.08127e-07
3.7389e-07
-3.57696e-06
6.08572e-07
-2.95994e-07
-2.766e-06
6.8114e-07
-1.07492e-06
-1.41614e-06
6.69391e-07
-1.61528e-06
-2.23007e-07
5.28814e-07
-1.4029e-06
2.32765e-07
-3.09685e-07
-2.36216e-07
2.29643e-07
2.5702e-07
-9.56024e-07
3.04646e-07
7.7127e-07
-1.844e-06
3.2573e-07
9.51262e-07
-2.65433e-06
3.66864e-07
8.74888e-07
-3.16206e-06
4.50151e-07
5.65709e-07
-3.14762e-06
5.64055e-07
3.00763e-08
-2.48105e-06
6.61702e-07
-6.47133e-07
-1.32225e-06
6.69684e-07
-1.1591e-06
-2.50729e-07
5.30533e-07
-1.07324e-06
2.14831e-07
-2.32796e-07
-1.58667e-07
1.05726e-07
2.82584e-07
-6.86116e-07
1.17781e-07
7.14313e-07
-1.35357e-06
1.1833e-07
8.74854e-07
-1.97972e-06
1.39683e-07
8.5333e-07
-2.39324e-06
1.92141e-07
6.71527e-07
-2.4187e-06
2.70075e-07
3.1944e-07
-1.94677e-06
3.45977e-07
-1.562e-07
-1.07814e-06
3.70108e-07
-5.69053e-07
-2.34465e-07
2.95864e-07
-6.09008e-07
9.78447e-08
-1.17479e-07
-5.92651e-08
1.64991e-07
-3.03568e-07
3.62084e-07
-6.27257e-07
4.42019e-07
-9.46001e-07
4.58426e-07
-1.17145e-06
4.17587e-07
-1.20528e-06
3.03903e-07
-9.80898e-07
1.216e-07
-5.40733e-07
-7.00572e-08
-1.03689e-07
-1.4118e-07
-5.84372e-09
-2.19101e-07
-2.76978e-07
6.61072e-07
-7.1979e-07
-3.69132e-07
1.23191e-06
-1.32284e-06
-3.84733e-07
1.4298e-06
-1.89715e-06
-3.93799e-07
1.42653e-06
-2.29848e-06
-4.25449e-07
1.24437e-06
-2.36632e-06
-4.81714e-07
8.53456e-07
-1.98508e-06
-5.35325e-07
2.75691e-07
-1.19536e-06
-5.28015e-07
-3.31767e-07
-3.3135e-07
-3.9224e-07
-6.12949e-07
-8.48105e-08
-2.52383e-07
-5.98115e-07
-5.04877e-07
1.1086e-06
-1.81231e-06
-7.32244e-07
2.29162e-06
-3.20563e-06
-7.781e-07
2.66154e-06
-4.45101e-06
-7.95345e-07
2.50025e-06
-5.23816e-06
-8.42023e-07
1.87525e-06
-5.27067e-06
-9.18236e-07
7.88474e-07
-4.36551e-06
-9.8224e-07
-6.14438e-07
-2.65329e-06
-9.4035e-07
-1.86894e-06
-8.1942e-07
-7.10287e-07
-2.12483e-06
-2.321e-07
-7.89609e-07
-8.86666e-07
-5.13197e-07
1.15201e-06
-2.61592e-06
-7.77622e-07
2.5459e-06
-4.54042e-06
-8.34765e-07
2.93242e-06
-6.19089e-06
-8.51182e-07
2.5812e-06
-7.15295e-06
-8.89396e-07
1.57514e-06
-7.08198e-06
-9.50201e-07
-8.93431e-09
-5.76151e-06
-9.82595e-07
-1.96724e-06
-3.43602e-06
-9.22048e-07
-3.50289e-06
-1.0339e-06
-7.04292e-07
-3.48135e-06
-2.70917e-07
-1.22787e-06
-1.07668e-06
-3.1521e-07
1.07578e-06
-3.14645e-06
-4.87801e-07
2.5028e-06
-5.40701e-06
-5.26026e-07
2.84865e-06
-7.29085e-06
-5.34885e-07
2.34111e-06
-8.32524e-06
-5.53456e-07
1.07234e-06
-8.13102e-06
-5.82297e-07
-8.58121e-07
-6.51685e-06
-5.91062e-07
-3.08063e-06
-3.80841e-06
-5.48436e-07
-4.69733e-06
-1.09855e-06
-4.22164e-07
-4.39488e-06
-1.74885e-07
-1.50427e-06
-1.17067e-06
1.7157e-13
1.01271e-06
-3.41001e-06
1.03389e-13
2.42907e-06
-5.83345e-06
2.28824e-14
2.74105e-06
-7.82237e-06
-6.40043e-14
2.14838e-06
-8.87801e-06
-1.15385e-13
7.5102e-07
-8.60679e-06
-7.63916e-14
-1.33252e-06
-6.84055e-06
2.07086e-14
-3.66387e-06
-3.95041e-06
4.40888e-14
-5.28704e-06
-1.10955e-06
-7.2762e-15
-4.82654e-06
-6.90032e-14
-1.62972e-06
-1.17067e-06
3.1521e-07
1.01271e-06
-3.41001e-06
4.87801e-07
2.42907e-06
-5.83345e-06
5.26026e-07
2.74105e-06
-7.82237e-06
5.34885e-07
2.14838e-06
-8.87801e-06
5.53456e-07
7.5102e-07
-8.60679e-06
5.82297e-07
-1.33252e-06
-6.84055e-06
5.91062e-07
-3.66387e-06
-3.95042e-06
5.48436e-07
-5.28704e-06
-1.10955e-06
4.22164e-07
-4.82654e-06
1.74885e-07
-1.62972e-06
-1.07668e-06
5.13197e-07
1.07578e-06
-3.14645e-06
7.77622e-07
2.5028e-06
-5.40701e-06
8.34765e-07
2.84865e-06
-7.29085e-06
8.51181e-07
2.34111e-06
-8.32524e-06
8.89396e-07
1.07234e-06
-8.13102e-06
9.50201e-07
-8.58121e-07
-6.51685e-06
9.82595e-07
-3.08063e-06
-3.80841e-06
9.22048e-07
-4.69733e-06
-1.09855e-06
7.04292e-07
-4.39488e-06
2.70917e-07
-1.50427e-06
-8.86666e-07
5.04877e-07
1.15201e-06
-2.61592e-06
7.32244e-07
2.5459e-06
-4.54042e-06
7.781e-07
2.93242e-06
-6.19089e-06
7.95345e-07
2.5812e-06
-7.15295e-06
8.42023e-07
1.57514e-06
-7.08198e-06
9.18236e-07
-8.93411e-09
-5.76151e-06
9.8224e-07
-1.96724e-06
-3.43602e-06
9.4035e-07
-3.50289e-06
-1.0339e-06
7.10287e-07
-3.48135e-06
2.321e-07
-1.22787e-06
-5.98115e-07
2.76979e-07
1.1086e-06
-1.81231e-06
3.69133e-07
2.29162e-06
-3.20563e-06
3.84733e-07
2.66154e-06
-4.45101e-06
3.93799e-07
2.50025e-06
-5.23816e-06
4.25449e-07
1.87525e-06
-5.27067e-06
4.81713e-07
7.88474e-07
-4.36551e-06
5.35325e-07
-6.14438e-07
-2.65329e-06
5.28015e-07
-1.86894e-06
-8.1942e-07
3.92239e-07
-2.12483e-06
8.48105e-08
-7.89609e-07
-2.19102e-07
6.61071e-07
-7.19791e-07
1.23191e-06
-1.32284e-06
1.4298e-06
-1.89715e-06
1.42653e-06
-2.29848e-06
1.24437e-06
-2.36632e-06
8.53456e-07
-1.98508e-06
2.75691e-07
-1.19536e-06
-3.31767e-07
-3.3135e-07
-6.12949e-07
-2.52383e-07
-3.319e-07
-4.23506e-07
1.41648e-06
-1.00316e-06
-5.6788e-07
2.47105e-06
-1.78603e-06
-5.70988e-07
2.78365e-06
-2.54796e-06
-5.31595e-07
2.72006e-06
-3.1364e-06
-5.01616e-07
2.33442e-06
-3.34845e-06
-5.04016e-07
1.56953e-06
-2.98155e-06
-5.27069e-07
4.35856e-07
-1.97363e-06
-5.22562e-07
-8.17123e-07
-6.71506e-07
-3.93559e-07
-1.52151e-06
-4.00589e-08
-8.8383e-07
-9.51706e-07
-7.3525e-07
2.37205e-06
-2.68539e-06
-1.05887e-06
4.51629e-06
-4.60158e-06
-1.07163e-06
5.07837e-06
-6.31659e-06
-9.8734e-07
4.671e-06
-7.47792e-06
-9.06501e-07
3.44147e-06
-7.71149e-06
-8.66183e-07
1.38421e-06
-6.69508e-06
-8.51904e-07
-1.30602e-06
-4.40569e-06
-8.09034e-07
-3.87186e-06
-1.58075e-06
-6.23928e-07
-4.71939e-06
-1.55092e-07
-2.25533e-06
-1.43816e-06
-7.25618e-07
2.58053e-06
-3.96717e-06
-1.08459e-06
5.10063e-06
-6.66165e-06
-1.10037e-06
5.65565e-06
-8.94392e-06
-1.00302e-06
4.87915e-06
-1.03434e-05
-8.97682e-07
2.96577e-06
-1.04276e-05
-8.19857e-07
2.90132e-08
-8.86975e-06
-7.6397e-07
-3.61307e-06
-5.73273e-06
-7.04569e-07
-6.74437e-06
-2.02124e-06
-5.58149e-07
-7.25862e-06
-1.90485e-07
-3.21372e-06
-1.76229e-06
-4.38129e-07
2.55058e-06
-4.81719e-06
-6.66877e-07
5.13999e-06
-7.99449e-06
-6.76607e-07
5.6022e-06
-1.05818e-05
-6.11393e-07
4.53677e-06
-1.20474e-05
-5.36575e-07
2.17688e-06
-1.19516e-05
-4.73613e-07
-1.30015e-06
-1.00101e-05
-4.25498e-07
-5.36062e-06
-6.36865e-06
-3.86165e-07
-8.6572e-06
-2.19402e-06
-3.13129e-07
-8.81453e-06
-1.23531e-07
-3.76525e-06
-1.92244e-06
1.60719e-13
2.49702e-06
-5.23674e-06
5.23924e-14
5.07649e-06
-8.64219e-06
-4.0594e-14
5.46989e-06
-1.13572e-05
-1.31293e-13
4.25202e-06
-1.28251e-05
-1.14437e-13
1.68229e-06
-1.26163e-05
-5.35779e-14
-2.01486e-06
-1.04811e-05
1.59711e-14
-6.22464e-06
-6.61252e-06
2.13082e-14
-9.54175e-06
-2.24836e-06
-9.0922e-16
-9.50383e-06
-5.41452e-14
-4.00161e-06
-1.92244e-06
4.38129e-07
2.49702e-06
-5.23674e-06
6.66877e-07
5.07649e-06
-8.64219e-06
6.76607e-07
5.46989e-06
-1.13572e-05
6.11393e-07
4.25202e-06
-1.28251e-05
5.36575e-07
1.68229e-06
-1.26163e-05
4.73613e-07
-2.01486e-06
-1.04811e-05
4.25498e-07
-6.22464e-06
-6.61253e-06
3.86165e-07
-9.54175e-06
-2.24836e-06
3.13129e-07
-9.50383e-06
1.23531e-07
-4.00161e-06
-1.76229e-06
7.25619e-07
2.55058e-06
-4.81719e-06
1.08459e-06
5.13999e-06
-7.99449e-06
1.10037e-06
5.6022e-06
-1.05818e-05
1.00302e-06
4.53677e-06
-1.20474e-05
8.97682e-07
2.17688e-06
-1.19516e-05
8.19857e-07
-1.30015e-06
-1.00101e-05
7.6397e-07
-5.36062e-06
-6.36865e-06
7.04569e-07
-8.6572e-06
-2.19402e-06
5.58149e-07
-8.81453e-06
1.90485e-07
-3.76525e-06
-1.43816e-06
7.3525e-07
2.58053e-06
-3.96717e-06
1.05887e-06
5.10063e-06
-6.66165e-06
1.07163e-06
5.65565e-06
-8.94392e-06
9.8734e-07
4.87916e-06
-1.03434e-05
9.065e-07
2.96577e-06
-1.04276e-05
8.66183e-07
2.90132e-08
-8.86975e-06
8.51903e-07
-3.61307e-06
-5.73273e-06
8.09034e-07
-6.74437e-06
-2.02124e-06
6.23928e-07
-7.25862e-06
1.55092e-07
-3.21372e-06
-9.51706e-07
4.23506e-07
2.37205e-06
-2.68539e-06
5.6788e-07
4.51629e-06
-4.60158e-06
5.70988e-07
5.07837e-06
-6.31659e-06
5.31595e-07
4.671e-06
-7.47792e-06
5.01616e-07
3.44147e-06
-7.71149e-06
5.04016e-07
1.38421e-06
-6.69508e-06
5.27069e-07
-1.30602e-06
-4.40569e-06
5.22561e-07
-3.87186e-06
-1.58075e-06
3.93559e-07
-4.71939e-06
4.0059e-08
-2.25533e-06
-3.319e-07
1.41648e-06
-1.00316e-06
2.47105e-06
-1.78603e-06
2.78365e-06
-2.54796e-06
2.72006e-06
-3.1364e-06
2.33442e-06
-3.34845e-06
1.56953e-06
-2.98155e-06
4.35856e-07
-1.97363e-06
-8.17123e-07
-6.71506e-07
-1.52151e-06
-8.8383e-07
-4.1556e-07
-5.52603e-07
2.38464e-06
-1.2018e-06
-7.20237e-07
3.97753e-06
-2.11133e-06
-6.71049e-07
4.36423e-06
-3.0516e-06
-5.32207e-07
4.19254e-06
-3.90101e-06
-3.85687e-07
3.56952e-06
-4.42411e-06
-2.88769e-07
2.38139e-06
-4.28031e-06
-2.67381e-07
5.59439e-07
-3.1723e-06
-3.15476e-07
-1.60965e-06
-1.3065e-06
-2.98555e-07
-3.08876e-06
-1.32417e-10
-2.19019e-06
-1.2302e-06
-9.35285e-07
3.98493e-06
-3.35649e-06
-1.29982e-06
7.22216e-06
-5.672e-06
-1.20198e-06
7.92481e-06
-7.81573e-06
-9.12503e-07
7.19504e-06
-9.46506e-06
-5.87467e-07
5.29257e-06
-1.01903e-05
-3.34252e-07
2.15493e-06
-9.44977e-06
-2.16347e-07
-2.09758e-06
-6.8311e-06
-2.62686e-07
-6.54332e-06
-2.83763e-06
-3.10899e-07
-8.70052e-06
-5.05552e-08
-5.04254e-06
-1.87749e-06
-9.06126e-07
4.42886e-06
-5.02203e-06
-1.3002e-06
8.24556e-06
-8.29958e-06
-1.19166e-06
8.92287e-06
-1.11222e-05
-8.68871e-07
7.65819e-06
-1.30576e-05
-4.95631e-07
4.8093e-06
-1.36196e-05
-1.81748e-07
4.3852e-07
-1.22961e-05
-2.33805e-08
-5.12961e-06
-8.7071e-06
-6.56744e-08
-1.05303e-05
-3.56338e-06
-1.76169e-07
-1.25371e-05
-6.80057e-08
-6.75965e-06
-2.30795e-06
-5.40573e-07
4.49298e-06
-6.1172e-06
-7.87478e-07
8.43652e-06
-9.96811e-06
-7.16223e-07
8.97768e-06
-1.31143e-05
-5.06708e-07
7.32081e-06
-1.50762e-05
-2.62076e-07
3.90522e-06
-1.54134e-05
-5.26955e-08
-1.09205e-06
-1.36659e-05
5.30472e-08
-7.18455e-06
-9.54451e-06
2.40915e-08
-1.28683e-05
-3.8563e-06
-6.44763e-08
-1.46144e-05
-4.2997e-08
-7.64655e-06
-2.5186e-06
1.43367e-13
4.47505e-06
-6.64969e-06
5.22687e-14
8.42011e-06
-1.076e-05
-5.41745e-14
8.86399e-06
-1.40235e-05
-1.22995e-13
7.0088e-06
-1.59501e-05
-1.1385e-13
3.34684e-06
-1.61395e-05
-5.65572e-14
-1.87821e-06
-1.41882e-05
-1.5314e-14
-8.12287e-06
-9.84866e-06
-2.79311e-14
-1.38572e-05
-3.95665e-06
-7.31121e-14
-1.54603e-05
-8.19334e-14
-8.00126e-06
-2.5186e-06
5.40573e-07
4.47505e-06
-6.64969e-06
7.87478e-07
8.42011e-06
-1.076e-05
7.16223e-07
8.86399e-06
-1.40235e-05
5.06707e-07
7.0088e-06
-1.59501e-05
2.62076e-07
3.34684e-06
-1.61395e-05
5.26954e-08
-1.87821e-06
-1.41882e-05
-5.30473e-08
-8.12287e-06
-9.84866e-06
-2.40915e-08
-1.38572e-05
-3.95665e-06
6.44762e-08
-1.54603e-05
4.29968e-08
-8.00126e-06
-2.30795e-06
9.06126e-07
4.49298e-06
-6.1172e-06
1.3002e-06
8.43652e-06
-9.96811e-06
1.19166e-06
8.97768e-06
-1.31143e-05
8.6887e-07
7.32081e-06
-1.50762e-05
4.95631e-07
3.90522e-06
-1.54134e-05
1.81748e-07
-1.09205e-06
-1.36659e-05
2.33804e-08
-7.18455e-06
-9.54451e-06
6.56743e-08
-1.28683e-05
-3.8563e-06
1.76169e-07
-1.46144e-05
6.80056e-08
-7.64655e-06
-1.87749e-06
9.35285e-07
4.42886e-06
-5.02203e-06
1.29981e-06
8.24556e-06
-8.29958e-06
1.20198e-06
8.92287e-06
-1.11222e-05
9.12503e-07
7.65819e-06
-1.30576e-05
5.87467e-07
4.8093e-06
-1.36196e-05
3.34252e-07
4.3852e-07
-1.22961e-05
2.16347e-07
-5.12961e-06
-8.7071e-06
2.62686e-07
-1.05303e-05
-3.56338e-06
3.10899e-07
-1.25371e-05
5.05553e-08
-6.75965e-06
-1.2302e-06
5.52603e-07
3.98493e-06
-3.35649e-06
7.20237e-07
7.22216e-06
-5.672e-06
6.71049e-07
7.92481e-06
-7.81573e-06
5.32206e-07
7.19504e-06
-9.46506e-06
3.85687e-07
5.29257e-06
-1.01903e-05
2.88768e-07
2.15493e-06
-9.44977e-06
2.67381e-07
-2.09758e-06
-6.8311e-06
3.15476e-07
-6.54332e-06
-2.83763e-06
2.98555e-07
-8.70052e-06
1.32442e-10
-5.04254e-06
-4.1556e-07
2.38464e-06
-1.2018e-06
3.97753e-06
-2.11133e-06
4.36423e-06
-3.0516e-06
4.19254e-06
-3.90101e-06
3.56952e-06
-4.42411e-06
2.38139e-06
-4.28031e-06
5.59439e-07
-3.1723e-06
-1.60965e-06
-1.3065e-06
-3.08876e-06
-2.1902e-06
-5.08404e-07
-6.53597e-07
3.54664e-06
-1.353e-06
-8.09349e-07
5.63147e-06
-2.30869e-06
-6.55856e-07
5.97577e-06
-3.38129e-06
-3.48463e-07
5.61361e-06
-4.54222e-06
1.08329e-08
4.71961e-06
-5.55889e-06
2.88353e-07
3.10971e-06
-5.92513e-06
3.91901e-07
5.33777e-07
-4.95889e-06
2.41611e-07
-2.8175e-06
-2.45764e-06
1.95326e-09
-5.59196e-06
9.25207e-09
-4.65709e-06
-1.46994e-06
-1.0833e-06
5.88456e-06
-3.83841e-06
-1.42554e-06
1.02068e-05
-6.36711e-06
-1.12541e-06
1.09231e-05
-8.81846e-06
-5.07179e-07
9.8051e-06
-1.09866e-05
1.99791e-07
7.27172e-06
-1.24568e-05
7.80564e-07
3.13293e-06
-1.245e-05
1.02528e-06
-2.73776e-06
-9.98032e-06
7.74742e-07
-9.54611e-06
-4.84445e-06
2.41093e-07
-1.40755e-05
1.17521e-08
-9.88949e-06
-2.21629e-06
-1.03266e-06
6.59452e-06
-5.73476e-06
-1.39808e-06
1.17366e-05
-9.31206e-06
-1.07548e-06
1.24502e-05
-1.24628e-05
-4.10514e-07
1.07123e-05
-1.48909e-05
3.44194e-07
7.09301e-06
-1.61605e-05
9.57166e-07
1.53149e-06
-1.55694e-05
1.20468e-06
-5.90003e-06
-1.21703e-05
9.32654e-07
-1.40874e-05
-5.83469e-06
3.55633e-07
-1.89872e-05
1.84176e-08
-1.2601e-05
-2.70161e-06
-6.09334e-07
6.77125e-06
-6.94919e-06
-8.35401e-07
1.21214e-05
-1.11117e-05
-6.29926e-07
1.26947e-05
-1.45306e-05
-2.09283e-07
1.05384e-05
-1.68951e-05
2.64188e-07
6.34979e-06
-1.78422e-05
6.43518e-07
1.68641e-07
-1.68337e-05
7.79582e-07
-7.7679e-06
-1.29999e-05
5.98208e-07
-1.63677e-05
-6.20512e-06
2.3838e-07
-2.1292e-05
1.49482e-08
-1.38482e-05
-2.93377e-06
1.39185e-13
6.79948e-06
-7.52363e-06
1.31065e-14
1.21746e-05
-1.19333e-05
-1.0541e-13
1.26438e-05
-1.54196e-05
-1.68571e-13
1.02858e-05
-1.76829e-05
-1.23383e-13
5.87428e-06
-1.84396e-05
-6.69691e-14
-4.77971e-07
-1.72427e-05
-4.00166e-14
-8.54019e-06
-1.32663e-05
-7.27653e-14
-1.72354e-05
-6.33315e-06
-1.26265e-13
-2.21551e-05
-8.79376e-14
-1.43195e-05
-2.93377e-06
6.09334e-07
6.79948e-06
-7.52363e-06
8.35401e-07
1.21746e-05
-1.19333e-05
6.29926e-07
1.26438e-05
-1.54196e-05
2.09282e-07
1.02858e-05
-1.76829e-05
-2.64189e-07
5.87428e-06
-1.84396e-05
-6.43518e-07
-4.77971e-07
-1.72427e-05
-7.79583e-07
-8.54019e-06
-1.32663e-05
-5.98208e-07
-1.72354e-05
-6.33315e-06
-2.3838e-07
-2.21551e-05
-1.49485e-08
-1.43195e-05
-2.70161e-06
1.03266e-06
6.77125e-06
-6.94919e-06
1.39808e-06
1.21214e-05
-1.11117e-05
1.07548e-06
1.26947e-05
-1.45306e-05
4.10514e-07
1.05384e-05
-1.68951e-05
-3.44194e-07
6.34979e-06
-1.78422e-05
-9.57166e-07
1.68641e-07
-1.68337e-05
-1.20468e-06
-7.7679e-06
-1.29999e-05
-9.32654e-07
-1.63677e-05
-6.20512e-06
-3.55633e-07
-2.1292e-05
-1.84178e-08
-1.38482e-05
-2.21629e-06
1.0833e-06
6.59452e-06
-5.73476e-06
1.42554e-06
1.17366e-05
-9.31206e-06
1.12541e-06
1.24502e-05
-1.24628e-05
5.07179e-07
1.07123e-05
-1.48909e-05
-1.99791e-07
7.09301e-06
-1.61605e-05
-7.80564e-07
1.53149e-06
-1.55694e-05
-1.02528e-06
-5.90003e-06
-1.21703e-05
-7.74742e-07
-1.40874e-05
-5.83469e-06
-2.41093e-07
-1.89872e-05
-1.17521e-08
-1.2601e-05
-1.46994e-06
6.53597e-07
5.88456e-06
-3.83841e-06
8.09349e-07
1.02068e-05
-6.36711e-06
6.55856e-07
1.09231e-05
-8.81846e-06
3.48463e-07
9.8051e-06
-1.09866e-05
-1.08329e-08
7.27172e-06
-1.24568e-05
-2.88353e-07
3.13293e-06
-1.245e-05
-3.91902e-07
-2.73776e-06
-9.98032e-06
-2.41611e-07
-9.54611e-06
-4.84445e-06
-1.95327e-09
-1.40755e-05
-9.25199e-09
-9.88949e-06
-5.08404e-07
3.54664e-06
-1.353e-06
5.63147e-06
-2.30869e-06
5.97577e-06
-3.38129e-06
5.61361e-06
-4.54222e-06
4.71961e-06
-5.55889e-06
3.10971e-06
-5.92513e-06
5.33777e-07
-4.95889e-06
-2.8175e-06
-2.45764e-06
-5.59196e-06
-4.65709e-06
-7.00377e-07
-7.2889e-07
4.97591e-06
-1.52286e-06
-8.29427e-07
7.28338e-06
-2.3577e-06
-5.13371e-07
7.32398e-06
-3.40745e-06
4.38256e-08
6.61954e-06
-4.80346e-06
6.86221e-07
5.4294e-06
-6.41525e-06
1.25482e-06
3.46667e-06
-7.61305e-06
1.51994e-06
2.11633e-07
-7.23683e-06
1.22416e-06
-4.41789e-06
-4.28343e-06
4.92521e-07
-9.03788e-06
-6.43499e-08
-8.87617e-06
-1.75524e-06
-1.17671e-06
8.08763e-06
-4.14714e-06
-1.43241e-06
1.32017e-05
-6.52191e-06
-8.46795e-07
1.36313e-05
-8.89684e-06
1.99185e-07
1.20247e-05
-1.13126e-05
1.38889e-06
8.98483e-06
-1.34865e-05
2.38598e-06
4.17562e-06
-1.45652e-05
2.78701e-06
-2.92606e-06
-1.29985e-05
2.23254e-06
-1.21212e-05
-7.41644e-06
9.48366e-07
-2.01134e-05
-5.90589e-08
-1.73112e-05
-2.50866e-06
-1.10057e-06
9.02704e-06
-6.04825e-06
-1.37988e-06
1.52236e-05
-9.4093e-06
-7.76482e-07
1.5741e-05
-1.2353e-05
2.97448e-07
1.35577e-05
-1.48404e-05
1.48633e-06
9.48295e-06
-1.66372e-05
2.42562e-06
3.28868e-06
-1.70791e-05
2.71443e-06
-5.38556e-06
-1.47792e-05
2.09421e-06
-1.6249e-05
-8.35772e-06
8.69588e-07
-2.53299e-05
-3.02098e-08
-2.09876e-05
-2.97497e-06
-6.41359e-07
9.28701e-06
-7.208e-06
-8.14098e-07
1.57887e-05
-1.10686e-05
-4.40525e-07
1.62193e-05
-1.41404e-05
2.19202e-07
1.36884e-05
-1.63909e-05
9.32389e-07
9.1543e-06
-1.77395e-05
1.46521e-06
2.47762e-06
-1.77554e-05
1.59194e-06
-6.62952e-06
-1.52155e-05
1.18827e-06
-1.80017e-05
-8.65003e-06
4.79354e-07
-2.74672e-05
-9.13876e-09
-2.25193e-05
-3.18942e-06
3.45547e-14
9.34754e-06
-7.73356e-06
-8.72842e-14
1.59046e-05
-1.17837e-05
-2.08306e-13
1.62534e-05
-1.48407e-05
-2.11656e-13
1.35621e-05
-1.69081e-05
-1.14891e-13
8.87402e-06
-1.80089e-05
-4.43507e-14
2.0881e-06
-1.78685e-05
-3.49946e-14
-7.08866e-06
-1.53076e-05
-1.18204e-13
-1.8608e-05
-8.75634e-06
-1.71596e-13
-2.8227e-05
-1.72974e-13
-2.30849e-05
-3.18942e-06
6.41359e-07
9.34754e-06
-7.73356e-06
8.14098e-07
1.59046e-05
-1.17837e-05
4.40525e-07
1.62534e-05
-1.48407e-05
-2.19203e-07
1.35621e-05
-1.69081e-05
-9.32389e-07
8.87402e-06
-1.80089e-05
-1.46522e-06
2.0881e-06
-1.78685e-05
-1.59194e-06
-7.08866e-06
-1.53076e-05
-1.18827e-06
-1.8608e-05
-8.75634e-06
-4.79355e-07
-2.8227e-05
9.13834e-09
-2.30849e-05
-2.97497e-06
1.10057e-06
9.28701e-06
-7.208e-06
1.37988e-06
1.57887e-05
-1.10686e-05
7.76482e-07
1.62193e-05
-1.41404e-05
-2.97448e-07
1.36884e-05
-1.63909e-05
-1.48633e-06
9.1543e-06
-1.77395e-05
-2.42562e-06
2.47762e-06
-1.77554e-05
-2.71443e-06
-6.62952e-06
-1.52155e-05
-2.09421e-06
-1.80017e-05
-8.65003e-06
-8.69588e-07
-2.74672e-05
3.02095e-08
-2.25193e-05
-2.50866e-06
1.17671e-06
9.02704e-06
-6.04825e-06
1.43241e-06
1.52236e-05
-9.4093e-06
8.46794e-07
1.5741e-05
-1.2353e-05
-1.99185e-07
1.35577e-05
-1.48404e-05
-1.38889e-06
9.48295e-06
-1.66372e-05
-2.38598e-06
3.28868e-06
-1.70791e-05
-2.78701e-06
-5.38556e-06
-1.47792e-05
-2.23254e-06
-1.6249e-05
-8.35772e-06
-9.48366e-07
-2.53299e-05
5.90587e-08
-2.09876e-05
-1.75525e-06
7.2889e-07
8.08763e-06
-4.14714e-06
8.29426e-07
1.32017e-05
-6.52191e-06
5.13371e-07
1.36313e-05
-8.89684e-06
-4.38257e-08
1.20247e-05
-1.13126e-05
-6.86221e-07
8.98483e-06
-1.34865e-05
-1.25483e-06
4.17562e-06
-1.45652e-05
-1.51994e-06
-2.92606e-06
-1.29985e-05
-1.22416e-06
-1.21212e-05
-7.41644e-06
-4.92521e-07
-2.01134e-05
6.435e-08
-1.73112e-05
-7.00377e-07
4.97591e-06
-1.52286e-06
7.28338e-06
-2.3577e-06
7.32398e-06
-3.40745e-06
6.61954e-06
-4.80346e-06
5.4294e-06
-6.41525e-06
3.46667e-06
-7.61305e-06
2.11632e-07
-7.23683e-06
-4.41789e-06
-4.28343e-06
-9.03788e-06
-8.87617e-06
-1.23297e-06
-8.29877e-07
7.03876e-06
-1.84714e-06
-8.41291e-07
8.73883e-06
-2.20449e-06
-3.21314e-07
8.00265e-06
-2.83981e-06
5.18518e-07
6.73634e-06
-4.13972e-06
1.4986e-06
5.23071e-06
-6.1803e-06
2.43384e-06
3.07341e-06
-8.42116e-06
2.97202e-06
-5.19532e-07
-9.22637e-06
2.58668e-06
-6.19937e-06
-6.50428e-06
1.20313e-06
-1.29631e-05
-2.93422e-07
-1.5087e-05
-2.38792e-06
-1.2699e-06
1.09156e-05
-4.40731e-06
-1.40935e-06
1.57891e-05
-5.92526e-06
-5.13575e-07
1.53415e-05
-7.39327e-06
9.47219e-07
1.3064e-05
-9.21939e-06
2.59173e-06
9.71782e-06
-1.14566e-05
4.00375e-06
4.84298e-06
-1.35131e-05
4.60905e-06
-2.50662e-06
-1.36536e-05
3.75994e-06
-1.3154e-05
-9.28584e-06
1.578e-06
-2.4856e-05
-4.16831e-07
-2.64736e-05
-3.03186e-06
-1.14978e-06
1.19388e-05
-6.04916e-06
-1.32378e-06
1.81554e-05
-8.31926e-06
-4.47099e-07
1.79446e-05
-1.00414e-05
9.73166e-07
1.52539e-05
-1.15578e-05
2.50856e-06
1.10825e-05
-1.30426e-05
3.708e-06
5.0692e-06
-1.42431e-05
4.04792e-06
-3.62389e-06
-1.38782e-05
3.09126e-06
-1.59452e-05
-9.46841e-06
1.16345e-06
-2.93252e-05
-3.38622e-07
-3.05342e-05
-3.39525e-06
-6.5736e-07
1.21898e-05
-6.97164e-06
-7.6864e-07
1.88099e-05
-9.57719e-06
-2.42512e-07
1.86203e-05
-1.12454e-05
6.02884e-07
1.57269e-05
-1.23376e-05
1.48803e-06
1.12671e-05
-1.32188e-05
2.13225e-06
4.93448e-06
-1.39521e-05
2.24359e-06
-4.09187e-06
-1.35439e-05
1.63403e-06
-1.69526e-05
-9.42735e-06
5.69883e-07
-3.09901e-05
-1.72734e-07
-3.21125e-05
-3.5518e-06
-1.05303e-13
1.2242e-05
-7.36246e-06
-2.27308e-13
1.89466e-05
-1.00736e-05
-2.79058e-13
1.8722e-05
-1.1648e-05
-2.10376e-13
1.57394e-05
-1.24902e-05
-1.06378e-13
1.12042e-05
-1.30962e-05
-7.1221e-14
4.82639e-06
-1.36933e-05
-1.03678e-13
-4.248e-06
-1.33751e-05
-1.93491e-13
-1.72922e-05
-9.44036e-06
-2.79857e-13
-3.15919e-05
-2.90284e-13
-3.2698e-05
-3.5518e-06
6.5736e-07
1.2242e-05
-7.36246e-06
7.6864e-07
1.89466e-05
-1.00736e-05
2.42511e-07
1.8722e-05
-1.1648e-05
-6.02885e-07
1.57394e-05
-1.24902e-05
-1.48803e-06
1.12042e-05
-1.30962e-05
-2.13225e-06
4.82639e-06
-1.36933e-05
-2.24359e-06
-4.248e-06
-1.33751e-05
-1.63403e-06
-1.72922e-05
-9.44036e-06
-5.69883e-07
-3.15919e-05
1.72734e-07
-3.2698e-05
-3.39525e-06
1.14978e-06
1.21898e-05
-6.97164e-06
1.32378e-06
1.88099e-05
-9.57719e-06
4.47099e-07
1.86203e-05
-1.12454e-05
-9.73167e-07
1.57269e-05
-1.23376e-05
-2.50856e-06
1.12671e-05
-1.32188e-05
-3.708e-06
4.93448e-06
-1.39521e-05
-4.04792e-06
-4.09187e-06
-1.35439e-05
-3.09126e-06
-1.69526e-05
-9.42735e-06
-1.16345e-06
-3.09901e-05
3.38622e-07
-3.21125e-05
-3.03186e-06
1.2699e-06
1.19388e-05
-6.04916e-06
1.40935e-06
1.81554e-05
-8.31926e-06
5.13574e-07
1.79446e-05
-1.00414e-05
-9.47219e-07
1.52539e-05
-1.15578e-05
-2.59173e-06
1.10825e-05
-1.30426e-05
-4.00375e-06
5.0692e-06
-1.42431e-05
-4.60905e-06
-3.62389e-06
-1.38782e-05
-3.75994e-06
-1.59452e-05
-9.46841e-06
-1.578e-06
-2.93252e-05
4.16831e-07
-3.05342e-05
-2.38792e-06
8.29877e-07
1.09156e-05
-4.40731e-06
8.4129e-07
1.57891e-05
-5.92526e-06
3.21314e-07
1.53415e-05
-7.39327e-06
-5.18518e-07
1.3064e-05
-9.21939e-06
-1.4986e-06
9.71782e-06
-1.14566e-05
-2.43384e-06
4.84298e-06
-1.35131e-05
-2.97202e-06
-2.50662e-06
-1.36536e-05
-2.58668e-06
-1.3154e-05
-9.28584e-06
-1.20313e-06
-2.4856e-05
2.93422e-07
-2.64736e-05
-1.23297e-06
7.03876e-06
-1.84714e-06
8.73883e-06
-2.20449e-06
8.00265e-06
-2.83981e-06
6.73634e-06
-4.13972e-06
5.23071e-06
-6.1803e-06
3.07341e-06
-8.42116e-06
-5.19532e-07
-9.22637e-06
-6.19937e-06
-6.50428e-06
-1.29631e-05
-1.5087e-05
-2.47823e-06
-1.08562e-06
1.06026e-05
-2.24521e-06
-1.07718e-06
9.583e-06
-1.30174e-06
-3.93436e-07
7.45262e-06
-7.46672e-07
6.6881e-07
5.51246e-06
-1.22862e-06
1.90016e-06
3.8125e-06
-3.08123e-06
3.13778e-06
1.78824e-06
-6.14647e-06
4.02717e-06
-1.48146e-06
-8.67991e-06
3.68821e-06
-7.35414e-06
-7.66904e-06
1.6293e-06
-1.56033e-05
-1.00798e-06
-2.17481e-05
-4.03349e-06
-1.53018e-06
1.53936e-05
-4.70103e-06
-1.66069e-06
1.70402e-05
-3.91182e-06
-5.99174e-07
1.4758e-05
-2.95047e-06
1.05327e-06
1.17182e-05
-2.67972e-06
2.91216e-06
8.43507e-06
-3.59151e-06
4.58342e-06
4.30913e-06
-5.74792e-06
5.50077e-06
-1.82381e-06
-8.05629e-06
4.6121e-06
-1.17696e-05
-7.44578e-06
1.63763e-06
-2.54749e-05
-1.37206e-06
-3.35553e-05
-4.64809e-06
-1.30429e-06
1.6361e-05
-6.02458e-06
-1.47308e-06
1.93442e-05
-5.57312e-06
-4.95972e-07
1.73899e-05
-4.39976e-06
1.00759e-06
1.41263e-05
-3.33134e-06
2.61956e-06
1.03066e-05
-3.01281e-06
3.93968e-06
5.39441e-06
-3.89674e-06
4.47003e-06
-1.70922e-06
-5.78663e-06
3.47231e-06
-1.29155e-05
-6.01113e-06
1.03631e-06
-2.84993e-05
-1.01105e-06
-3.69063e-05
-4.91117e-06
-7.19172e-07
1.65159e-05
-6.64964e-06
-8.26472e-07
1.99018e-05
-6.34042e-06
-2.59745e-07
1.80749e-05
-4.97689e-06
6.01714e-07
1.47692e-05
-3.40264e-06
1.49401e-06
1.08184e-05
-2.41477e-06
2.17606e-06
5.71022e-06
-2.75098e-06
2.37896e-06
-1.66459e-06
-4.67796e-06
1.75747e-06
-1.33108e-05
-5.50753e-06
4.73001e-07
-2.95973e-05
-4.83261e-07
-3.81479e-05
-5.00376e-06
-1.79465e-13
1.65266e-05
-6.87452e-06
-2.93515e-13
1.99909e-05
-6.59196e-06
-2.85874e-13
1.81797e-05
-5.11036e-06
-1.95976e-13
1.48595e-05
-3.30504e-06
-1.19936e-13
1.08929e-05
-2.07006e-06
-1.10103e-13
5.76747e-06
-2.2741e-06
-1.45335e-13
-1.66501e-06
-4.33555e-06
-2.55995e-13
-1.34732e-05
-5.4332e-06
-3.39773e-13
-3.00212e-05
-3.30966e-13
-3.86145e-05
-5.00376e-06
7.19172e-07
1.65266e-05
-6.87452e-06
8.26472e-07
1.99909e-05
-6.59196e-06
2.59744e-07
1.81797e-05
-5.11036e-06
-6.01714e-07
1.48595e-05
-3.30504e-06
-1.49401e-06
1.08929e-05
-2.07006e-06
-2.17606e-06
5.76747e-06
-2.2741e-06
-2.37896e-06
-1.66501e-06
-4.33555e-06
-1.75747e-06
-1.34732e-05
-5.4332e-06
-4.73002e-07
-3.00212e-05
4.83261e-07
-3.86145e-05
-4.91117e-06
1.30429e-06
1.65159e-05
-6.64964e-06
1.47308e-06
1.99018e-05
-6.34043e-06
4.95972e-07
1.80749e-05
-4.97689e-06
-1.00759e-06
1.47692e-05
-3.40264e-06
-2.61956e-06
1.08184e-05
-2.41477e-06
-3.93968e-06
5.71022e-06
-2.75098e-06
-4.47003e-06
-1.66459e-06
-4.67796e-06
-3.47231e-06
-1.33108e-05
-5.50753e-06
-1.03631e-06
-2.95973e-05
1.01105e-06
-3.81479e-05
-4.64809e-06
1.53018e-06
1.6361e-05
-6.02458e-06
1.66069e-06
1.93442e-05
-5.57312e-06
5.99174e-07
1.73899e-05
-4.39976e-06
-1.05327e-06
1.41263e-05
-3.33134e-06
-2.91216e-06
1.03066e-05
-3.01281e-06
-4.58342e-06
5.39441e-06
-3.89674e-06
-5.50077e-06
-1.70922e-06
-5.78663e-06
-4.6121e-06
-1.29155e-05
-6.01113e-06
-1.63763e-06
-2.84993e-05
1.37206e-06
-3.69063e-05
-4.03349e-06
1.08562e-06
1.53936e-05
-4.70103e-06
1.07718e-06
1.70402e-05
-3.91182e-06
3.93435e-07
1.4758e-05
-2.95047e-06
-6.6881e-07
1.17182e-05
-2.67972e-06
-1.90016e-06
8.43507e-06
-3.59151e-06
-3.13778e-06
4.30913e-06
-5.74792e-06
-4.02717e-06
-1.82381e-06
-8.05629e-06
-3.68821e-06
-1.17696e-05
-7.44578e-06
-1.6293e-06
-2.54749e-05
1.00798e-06
-3.35553e-05
-2.47823e-06
1.06026e-05
-2.24521e-06
9.583e-06
-1.30174e-06
7.45262e-06
-7.46672e-07
5.51246e-06
-1.22862e-06
3.81249e-06
-3.08123e-06
1.78824e-06
-6.14647e-06
-1.48146e-06
-8.67991e-06
-7.35414e-06
-7.66904e-06
-1.56033e-05
-2.17481e-05
-2.67295e-06
-1.85778e-06
1.51333e-05
5.0563e-07
-1.98469e-06
8.38911e-06
4.53902e-06
-1.1976e-06
4.61683e-06
7.40116e-06
-1.44726e-07
2.79505e-06
8.59169e-06
1.09526e-06
1.52671e-06
7.66748e-06
2.38208e-06
3.30375e-07
4.35869e-06
3.55332e-06
-1.72598e-06
-6.14329e-07
3.45682e-06
-5.83794e-06
-3.46994e-06
9.11849e-07
-1.36595e-05
-2.71582e-06
-2.25022e-05
-4.77595e-06
-2.23138e-06
2.05432e-05
-7.88193e-07
-2.67412e-06
1.37419e-05
5.12523e-06
-1.76783e-06
9.4148e-06
1.0271e-05
-2.9868e-07
6.72639e-06
1.39501e-05
1.37e-06
4.4812e-06
1.5475e-05
3.0095e-06
2.15679e-06
1.40337e-05
4.27777e-06
-1.10697e-06
9.31148e-06
3.84897e-06
-7.43945e-06
3.09027e-06
7.0485e-07
-1.90466e-05
-2.75525e-06
-3.04256e-05
-5.5406e-06
-1.70796e-06
2.13782e-05
-1.75097e-06
-2.1685e-06
1.5049e-05
4.31757e-06
-1.44338e-06
1.0997e-05
1.01421e-05
-2.41867e-07
8.24492e-06
1.4958e-05
1.10488e-06
5.75583e-06
1.79643e-05
2.35463e-06
3.04294e-06
1.79096e-05
3.2038e-06
-5.80531e-07
1.37008e-05
2.75858e-06
-7.61629e-06
5.70977e-06
4.43382e-07
-2.02468e-05
-1.72433e-06
-3.22275e-05
-5.73588e-06
-8.86982e-07
2.14308e-05
-2.08793e-06
-1.15365e-06
1.5239e-05
3.97969e-06
-7.57337e-07
1.13212e-05
1.00136e-05
-1.11886e-07
8.60534e-06
1.52437e-05
6.01372e-07
6.09182e-06
1.87791e-05
1.23834e-06
3.29107e-06