/*--------------------------------*- C++ -*----------------------------------*\
  =========                 |
  \\      /  F ield         | OpenFOAM: The Open Source CFD Toolbox
   \\    /   O peration     | Website:  https://openfoam.org
    \\  /    A nd           | Version:  9
     \\/     M anipulation  |
\*---------------------------------------------------------------------------*/
FoamFile
{
    format      ascii;
    class       volScalarField;
    location    "0.18";
    object      p;
}
// * * * * * * * * * * * * * * * * * * * * * * * * * * * * * * * * * * * * * //

dimensions      [0 2 -2 0 0 0 0];

internalField   nonuniform List<scalar> 
1000
(
7.25993e-08
-0.000303212
0.000428371
0.00200943
0.00435017
0.00721976
0.010187
0.0126517
0.0140174
0.0136272
0.000160372
-0.000420296
0.000268343
0.00190851
0.00437911
0.00742268
0.010582
0.0131842
0.0145249
0.0137243
0.000498604
-0.000244759
0.000414736
0.0020834
0.00463929
0.00782289
0.0111305
0.0138188
0.0151041
0.0139752
0.000800571
-2.91124e-05
0.000606601
0.00228572
0.00488778
0.00814754
0.0115391
0.0142706
0.0155172
0.0142027
0.000972007
0.000109203
0.000732798
0.00241271
0.00503123
0.00832127
0.0117469
0.0144949
0.0157243
0.014334
0.000971973
0.000109175
0.000732778
0.0024127
0.00503123
0.00832127
0.0117469
0.0144949
0.0157243
0.014334
0.000800464
-2.91988e-05
0.00060654
0.00228568
0.00488776
0.00814754
0.0115391
0.0142706
0.0155172
0.0142027
0.000498388
-0.000244921
0.000414628
0.00208334
0.00463926
0.00782289
0.0111305
0.0138188
0.0151041
0.0139752
0.000159999
-0.000420556
0.000268184
0.00190843
0.00437907
0.00742268
0.010582
0.0131842
0.014525
0.0137243
-4.05338e-07
-0.000303576
0.000428158
0.00200932
0.00435012
0.00721975
0.010187
0.0126517
0.0140175
0.0136273
0.000189002
-0.000157988
0.000556647
0.00204809
0.00425131
0.00698015
0.0098651
0.0123406
0.0137719
0.0132665
0.000663513
6.08186e-06
0.000682442
0.00217017
0.00439109
0.00716266
0.0101239
0.012651
0.0140334
0.0129958
0.00125089
0.000382383
0.00101648
0.0024878
0.00472222
0.00754393
0.0105823
0.0131493
0.0144671
0.0130673
0.00168539
0.000704263
0.00130546
0.00276041
0.00500042
0.00785545
0.0109385
0.0135273
0.0148025
0.0131946
0.00190916
0.000883232
0.00146749
0.00291238
0.00515283
0.00802144
0.0111238
0.0137218
0.0149792
0.0132895
0.00190913
0.000883208
0.00146748
0.00291237
0.00515282
0.00802144
0.0111238
0.0137218
0.0149792
0.0132895
0.0016853
0.00070419
0.00130541
0.00276038
0.00500041
0.00785544
0.0109385
0.0135273
0.0148025
0.0131946
0.00125072
0.000382251
0.00101639
0.00248775
0.0047222
0.00754392
0.0105823
0.0131493
0.0144671
0.0130674
0.000663241
5.87874e-06
0.000682313
0.0021701
0.00439106
0.00716266
0.0101239
0.012651
0.0140334
0.0129958
0.000188629
-0.000158253
0.000556484
0.00204801
0.00425127
0.00698014
0.00986511
0.0123407
0.0137719
0.0132666
-0.00103228
-0.00149733
-0.000755975
0.000800685
0.00314556
0.00616276
0.00951791
0.0126016
0.0145454
0.013934
-0.000305861
-0.00119326
-0.000498777
0.00104249
0.00339149
0.0064518
0.00989219
0.013046
0.0149208
0.0135095
0.000546159
-0.00062642
6.40732e-06
0.0015047
0.00383936
0.00693185
0.0104513
0.0136585
0.015456
0.0135078
0.00114972
-0.000174218
0.000409251
0.00186811
0.00418431
0.00729322
0.0108546
0.0140911
0.0158412
0.0135971
0.0014502
6.63936e-05
0.00062388
0.00206004
0.00436344
0.00747609
0.011054
0.0143029
0.0160349
0.0136791
0.00145018
6.63737e-05
0.000623866
0.00206003
0.00436344
0.00747609
0.011054
0.0143028
0.0160349
0.0136791
0.00114965
-0.000174279
0.000409208
0.00186809
0.0041843
0.00729321
0.0108546
0.0140911
0.0158412
0.0135971
0.000546031
-0.000626523
6.33439e-06
0.00150466
0.00383933
0.00693183
0.0104513
0.0136585
0.015456
0.0135078
-0.000306046
-0.00119341
-0.000498878
0.00104243
0.00339146
0.00645177
0.00989218
0.013046
0.0149208
0.0135095
-0.00103252
-0.00149751
-0.000756099
0.000800609
0.00314551
0.00616274
0.0095179
0.0126016
0.0145454
0.013934
-0.00388789
-0.0044468
-0.00360126
-0.00186391
0.000799773
0.00439676
0.00869863
0.0130913
0.0162672
0.0159183
-0.00287011
-0.00398432
-0.00319643
-0.00147695
0.0011962
0.00485711
0.00929525
0.0138342
0.0169365
0.0154145
-0.00169676
-0.00318423
-0.00248967
-0.000853391
0.00176284
0.00541265
0.00996014
0.0146114
0.0176603
0.0154092
-0.000880666
-0.00256666
-0.00195007
-0.000390646
0.00216623
0.00578197
0.010392
0.0151092
0.0181319
0.0154991
-0.000481482
-0.00224572
-0.00167111
-0.000155809
0.0023654
0.0059666
0.0105888
0.0153329
0.0183506
0.0155797
-0.0004815
-0.00224574
-0.00167112
-0.000155818
0.00236539
0.00596659
0.0105888
0.0153329
0.0183506
0.0155797
-0.000880722
-0.0025667
-0.00195011
-0.000390673
0.00216621
0.00578195
0.010392
0.0151091
0.0181318
0.0154991
-0.00169685
-0.00318431
-0.00248973
-0.000853434
0.0017628
0.00541262
0.00996011
0.0146114
0.0176603
0.0154092
-0.00287024
-0.00398442
-0.00319651
-0.001477
0.00119616
0.00485707
0.00929521
0.0138341
0.0169365
0.0154145
-0.00388803
-0.00444692
-0.00360135
-0.00186398
0.000799718
0.00439671
0.00869859
0.0130913
0.0162671
0.0159183
-0.00900181
-0.00952664
-0.00845065
-0.00644401
-0.00337435
0.00100633
0.00675767
0.0134327
0.0191653
0.0202868
-0.00760041
-0.00885906
-0.00787258
-0.00591027
-0.00284876
0.00159874
0.00751423
0.0144931
0.0202418
0.0199718
-0.0060309
-0.00778068
-0.00695881
-0.00517821
-0.0022778
0.00210692
0.008055
0.0152531
0.0210973
0.0201075
-0.00495963
-0.00696952
-0.00628242
-0.00465689
-0.0018992
0.0024091
0.00834659
0.0156742
0.0215972
0.0202741
-0.00444473
-0.00655599
-0.00594075
-0.00440106
-0.00172659
0.00252055
0.00845257
0.0158369
0.0218075
0.020376
-0.00444474
-0.006556
-0.00594076
-0.00440107
-0.0017266
0.00252054
0.00845257
0.0158369
0.0218075
0.020376
-0.00495967
-0.00696955
-0.00628245
-0.00465691
-0.00189922
0.00240908
0.00834657
0.0156742
0.0215972
0.0202741
-0.00603096
-0.00778074
-0.00695886
-0.00517825
-0.00227785
0.00210687
0.00805497
0.015253
0.0210973
0.0201075
-0.00760049
-0.00885914
-0.00787264
-0.00591032
-0.00284882
0.00159869
0.00751419
0.014493
0.0202418
0.0199718
-0.00900191
-0.00952672
-0.00845072
-0.00644407
-0.00337442
0.00100627
0.00675762
0.0134327
0.0191653
0.0202867
-0.0173187
-0.0173928
-0.0158231
-0.0134659
-0.010053
-0.0049132
0.00269892
0.0129487
0.0236312
0.0292341
-0.0153783
-0.0164771
-0.0151229
-0.0129488
-0.00969563
-0.00473213
0.00283416
0.01356
0.0246697
0.0295593
-0.0133089
-0.0150833
-0.0140649
-0.0123157
-0.00952818
-0.00495653
0.00239866
0.0134557
0.025116
0.0299523
-0.011931
-0.0140547
-0.0132872
-0.0118613
-0.00942825
-0.00517141
0.00201261
0.0132623
0.0252926
0.030212
-0.011283
-0.0135387
-0.0128983
-0.0116395
-0.00939099
-0.00530136
0.00179613
0.013133
0.0253435
0.030328
-0.011283
-0.0135387
-0.0128983
-0.0116396
-0.00939099
-0.00530137
0.00179612
0.013133
0.0253435
0.0303279
-0.011931
-0.0140547
-0.0132872
-0.0118613
-0.00942828
-0.00517143
0.0020126
0.0132622
0.0252926
0.030212
-0.0133089
-0.0150833
-0.0140649
-0.0123157
-0.00952822
-0.00495657
0.00239863
0.0134557
0.025116
0.0299523
-0.0153783
-0.0164772
-0.0151229
-0.0129489
-0.00969569
-0.00473219
0.00283412
0.01356
0.0246697
0.0295593
-0.0173188
-0.0173929
-0.0158231
-0.0134659
-0.0100531
-0.00491325
0.00269888
0.0129487
0.0236312
0.0292341
-0.0305642
-0.0287522
-0.0259411
-0.0229641
-0.0192525
-0.0136211
-0.00413561
0.0110085
0.0299734
0.0464817
-0.0278021
-0.0275068
-0.0252956
-0.022901
-0.019826
-0.0149981
-0.00635725
0.00886767
0.0288406
0.046855
-0.0250565
-0.02572
-0.0241981
-0.0226945
-0.0206394
-0.0169207
-0.00919501
0.00618631
0.0274088
0.0470954
-0.0232925
-0.0244234
-0.0233534
-0.0224567
-0.0211285
-0.0181823
-0.0110423
0.00444858
0.0264701
0.0472137
-0.0224865
-0.0237819
-0.0229245
-0.0223227
-0.0213463
-0.0187765
-0.0119062
0.00364389
0.0260439
0.0472411
-0.0224865
-0.0237819
-0.0229245
-0.0223227
-0.0213463
-0.0187765
-0.0119062
0.00364389
0.0260439
0.0472411
-0.0232926
-0.0244234
-0.0233534
-0.0224567
-0.0211285
-0.0181823
-0.0110423
0.00444856
0.0264701
0.0472137
-0.0250565
-0.02572
-0.0241981
-0.0226945
-0.0206395
-0.0169207
-0.00919503
0.00618628
0.0274087
0.0470954
-0.0278021
-0.0275068
-0.0252957
-0.0229011
-0.019826
-0.0149982
-0.00635728
0.00886764
0.0288406
0.046855
-0.0305642
-0.0287523
-0.0259411
-0.0229642
-0.0192525
-0.0136211
-0.00413565
0.0110085
0.0299733
0.0464817
-0.0534552
-0.0441151
-0.0382238
-0.0336913
-0.0293562
-0.0232966
-0.0124665
0.00842841
0.0385227
0.0781132
-0.0493429
-0.0423255
-0.0376891
-0.0345147
-0.0315494
-0.0273095
-0.0188541
0.000762056
0.0319533
0.0780997
-0.045545
-0.0398007
-0.0363567
-0.0347467
-0.0335333
-0.0312594
-0.0247526
-0.00550886
0.0276101
0.0785539
-0.0432083
-0.0380273
-0.0352772
-0.0346377
-0.0346018
-0.0336223
-0.0282872
-0.0091239
0.0253071
0.0789902
-0.0421764
-0.0371718
-0.0347232
-0.034527
-0.0350389
-0.0346702
-0.0298696
-0.0107092
0.0243586
0.0791409
-0.0421764
-0.0371718
-0.0347232
-0.034527
-0.0350389
-0.0346702
-0.0298696
-0.0107092
0.0243586
0.0791409
-0.0432083
-0.0380273
-0.0352772
-0.0346377
-0.0346018
-0.0336223
-0.0282873
-0.00912393
0.0253071
0.0789902
-0.0455449
-0.0398007
-0.0363568
-0.0347467
-0.0335333
-0.0312595
-0.0247527
-0.00550889
0.0276101
0.0785539
-0.0493429
-0.0423255
-0.0376892
-0.0345147
-0.0315495
-0.0273095
-0.0188541
0.000762023
0.0319533
0.0780997
-0.0534552
-0.0441151
-0.0382239
-0.0336913
-0.0293562
-0.0232966
-0.0124665
0.00842838
0.0385227
0.0781131
-0.0871928
-0.0610238
-0.0511099
-0.0431223
-0.0371065
-0.0299676
-0.0171646
0.0120402
0.0550496
0.150485
-0.0791386
-0.0576087
-0.0504442
-0.0448799
-0.0407736
-0.0359976
-0.0267299
0.00112871
0.0468786
0.160249
-0.0734092
-0.0537364
-0.0484122
-0.0449962
-0.0432331
-0.0408131
-0.0339696
-0.00550086
0.0455263
0.166737
-0.0702607
-0.0511895
-0.046814
-0.0446851
-0.0444144
-0.0435198
-0.0380121
-0.00890506
0.0449195
0.170548
-0.0689463
-0.0500028
-0.0460156
-0.044457
-0.0448672
-0.0446869
-0.0397843
-0.0104085
0.0445991
0.172081
-0.0689463
-0.0500028
-0.0460156
-0.044457
-0.0448672
-0.0446869
-0.0397844
-0.0104085
0.0445991
0.172081
-0.0702607
-0.0511895
-0.046814
-0.0446851
-0.0444144
-0.0435198
-0.0380122
-0.00890508
0.0449195
0.170548
-0.0734091
-0.0537364
-0.0484123
-0.0449962
-0.0432331
-0.0408131
-0.0339696
-0.00550089
0.0455263
0.166736
-0.0791386
-0.0576087
-0.0504443
-0.0448799
-0.0407737
-0.0359976
-0.0267299
0.00112867
0.0468785
0.160249
-0.0871928
-0.0610238
-0.05111
-0.0431223
-0.0371066
-0.0299676
-0.0171646
0.0120402
0.0550495
0.150485
-0.198552
-0.0749245
-0.0496596
-0.0391451
-0.0318601
-0.0227198
-0.00505694
0.0381466
0.120232
0.322273
-0.186611
-0.0633868
-0.0434142
-0.0370769
-0.0328529
-0.0264611
-0.0115009
0.0337352
0.128507
0.353952
-0.178756
-0.0560614
-0.0385943
-0.0350317
-0.0334362
-0.0291984
-0.0155702
0.0319069
0.135266
0.37245
-0.174552
-0.0520872
-0.0356501
-0.0336172
-0.0336324
-0.0307171
-0.0177647
0.0308429
0.138203
0.380996
-0.172799
-0.0503928
-0.0343288
-0.0329388
-0.0336816
-0.0313896
-0.0187801
0.0302211
0.13911
0.384077
-0.172799
-0.0503928
-0.0343288
-0.0329388
-0.0336816
-0.0313896
-0.0187801
0.0302211
0.13911
0.384077
-0.174552
-0.0520872
-0.0356501
-0.0336172
-0.0336324
-0.0307171
-0.0177647
0.0308429
0.138203
0.380996
-0.178756
-0.0560614
-0.0385943
-0.0350318
-0.0334363
-0.0291984
-0.0155703
0.0319069
0.135266
0.37245
-0.186611
-0.0633868
-0.0434142
-0.0370769
-0.0328529
-0.0264612
-0.0115009
0.0337352
0.128507
0.353952
-0.198552
-0.0749245
-0.0496596
-0.0391452
-0.0318601
-0.0227198
-0.00505696
0.0381466
0.120232
0.322273
)
;

boundaryField
{
    top
    {
        type            zeroGradient;
    }
    others
    {
        type            zeroGradient;
    }
}


// ************************************************************************* //
