/*--------------------------------*- C++ -*----------------------------------*\
  =========                 |
  \\      /  F ield         | OpenFOAM: The Open Source CFD Toolbox
   \\    /   O peration     | Website:  https://openfoam.org
    \\  /    A nd           | Version:  9
     \\/     M anipulation  |
\*---------------------------------------------------------------------------*/
FoamFile
{
    format      ascii;
    class       surfaceScalarField;
    location    "0.76";
    object      phi;
}
// * * * * * * * * * * * * * * * * * * * * * * * * * * * * * * * * * * * * * //

dimensions      [0 3 -1 0 0 0 0];

internalField   nonuniform List<scalar> 
2700
(
-5.76305e-08
-1.08426e-07
1.66166e-07
-3.01101e-07
-1.21918e-07
3.65388e-07
-6.25673e-07
-1.22595e-07
4.47167e-07
-9.46572e-07
-1.43947e-07
4.64846e-07
-1.1741e-06
-1.96787e-07
4.24313e-07
-1.2086e-06
-2.75388e-07
3.09891e-07
-9.83124e-07
-3.51673e-07
1.26197e-07
-5.41073e-07
-3.75323e-07
-6.67291e-08
-1.03121e-07
-2.99575e-07
-1.38377e-07
-9.91715e-08
-3.9494e-09
-1.5714e-07
-2.36457e-07
2.8517e-07
-6.86245e-07
-3.15047e-07
7.22234e-07
-1.35805e-06
-3.36575e-07
8.85783e-07
-1.98928e-06
-3.77506e-07
8.64784e-07
-2.406e-06
-4.61064e-07
6.80998e-07
-2.43092e-06
-5.75588e-07
3.2512e-07
-1.95471e-06
-6.7333e-07
-1.54549e-07
-1.08061e-06
-6.80018e-07
-5.69409e-07
-2.33821e-07
-5.37998e-07
-6.08364e-07
-2.17948e-07
-1.15045e-07
-2.3663e-07
-2.58615e-07
2.58788e-07
-9.62269e-07
-3.68648e-07
7.79239e-07
-1.85863e-06
-4.02123e-07
9.61908e-07
-2.6762e-06
-4.44203e-07
8.84271e-07
-3.18665e-06
-5.20921e-07
5.70299e-07
-3.1689e-06
-6.21678e-07
2.83466e-08
-2.49389e-06
-6.93768e-07
-6.54579e-07
-1.32584e-06
-6.80313e-07
-1.16775e-06
-2.4953e-07
-5.3672e-07
-1.07759e-06
-2.36243e-07
-2.31236e-07
-2.91572e-07
-1.64162e-07
1.97119e-07
-1.14809e-06
-2.40871e-07
7.28745e-07
-2.18978e-06
-2.64892e-07
9.04452e-07
-3.12143e-06
-2.90538e-07
7.77984e-07
-3.67937e-06
-3.34091e-07
3.71112e-07
-3.60516e-06
-3.88474e-07
-3.07407e-07
-2.78198e-06
-4.25109e-07
-1.09184e-06
-1.41986e-06
-4.10749e-07
-1.63168e-06
-2.20969e-07
-3.23966e-07
-1.41165e-06
-1.48298e-07
-3.08913e-07
-3.20197e-07
2.52442e-12
1.56031e-07
-1.24275e-06
2.21697e-12
6.81681e-07
-2.35641e-06
1.77334e-12
8.48762e-07
-3.34196e-06
1.25763e-12
6.95018e-07
-3.91709e-06
8.77398e-13
2.41031e-07
-3.80943e-06
6.07967e-13
-4.96127e-07
-2.90554e-06
3.86682e-13
-1.329e-06
-1.44717e-06
2.88652e-13
-1.86912e-06
-1.96587e-07
2.15568e-13
-1.57454e-06
1.81658e-13
-3.44886e-07
-3.20197e-07
1.64168e-07
1.56031e-07
-1.24275e-06
2.40876e-07
6.81681e-07
-2.35641e-06
2.64895e-07
8.48762e-07
-3.34196e-06
2.90541e-07
6.95017e-07
-3.91709e-06
3.34093e-07
2.41031e-07
-3.80943e-06
3.88475e-07
-4.96127e-07
-2.90554e-06
4.25109e-07
-1.329e-06
-1.44717e-06
4.10749e-07
-1.86912e-06
-1.96587e-07
3.23966e-07
-1.57454e-06
1.48298e-07
-3.44886e-07
-2.91573e-07
2.58624e-07
1.97118e-07
-1.1481e-06
3.68654e-07
7.28744e-07
-2.18978e-06
4.02127e-07
9.04451e-07
-3.12143e-06
4.44205e-07
7.77984e-07
-3.67937e-06
5.20922e-07
3.71112e-07
-3.60517e-06
6.21679e-07
-3.07407e-07
-2.78198e-06
6.93769e-07
-1.09184e-06
-1.41986e-06
6.80313e-07
-1.63168e-06
-2.20969e-07
5.36721e-07
-1.41165e-06
2.36243e-07
-3.08913e-07
-2.36634e-07
2.36473e-07
2.58784e-07
-9.62273e-07
3.15056e-07
7.79237e-07
-1.85863e-06
3.36579e-07
9.61907e-07
-2.67621e-06
3.77509e-07
8.84271e-07
-3.18665e-06
4.61065e-07
5.70299e-07
-3.1689e-06
5.75588e-07
2.83464e-08
-2.49389e-06
6.7333e-07
-6.54579e-07
-1.32584e-06
6.80018e-07
-1.16775e-06
-2.4953e-07
5.37999e-07
-1.07759e-06
2.17949e-07
-2.31236e-07
-1.57151e-07
1.08465e-07
2.85159e-07
-6.86253e-07
1.21927e-07
7.22229e-07
-1.35805e-06
1.22599e-07
8.85781e-07
-1.98928e-06
1.43949e-07
8.64783e-07
-2.406e-06
1.96788e-07
6.80997e-07
-2.43092e-06
2.75389e-07
3.2512e-07
-1.95471e-06
3.51674e-07
-1.54549e-07
-1.08061e-06
3.75323e-07
-5.69409e-07
-2.33821e-07
2.99575e-07
-6.08364e-07
9.91718e-08
-1.15045e-07
-5.76643e-08
1.66129e-07
-3.01115e-07
3.65378e-07
-6.2568e-07
4.47164e-07
-9.46575e-07
4.64844e-07
-1.1741e-06
4.24312e-07
-1.2086e-06
3.0989e-07
-9.83125e-07
1.26197e-07
-5.41073e-07
-6.67291e-08
-1.03121e-07
-1.38377e-07
-3.94934e-09
-2.17966e-07
-2.83689e-07
6.67821e-07
-7.18302e-07
-3.80047e-07
1.24577e-06
-1.32329e-06
-3.95405e-07
1.44756e-06
-1.90139e-06
-4.02596e-07
1.44554e-06
-2.30624e-06
-4.32685e-07
1.26185e-06
-2.37518e-06
-4.88309e-07
8.67142e-07
-1.99196e-06
-5.4152e-07
2.84499e-07
-1.19846e-06
-5.33657e-07
-3.26577e-07
-3.31317e-07
-3.96435e-07
-6.09082e-07
-8.63263e-08
-2.4894e-07
-6.00076e-07
-5.19627e-07
1.12118e-06
-1.8214e-06
-7.55547e-07
2.31905e-06
-3.22467e-06
-8.00655e-07
2.69431e-06
-4.47935e-06
-8.13681e-07
2.53055e-06
-5.27114e-06
-8.56638e-07
1.89674e-06
-5.30112e-06
-9.31034e-07
7.97826e-07
-4.38745e-06
-9.9348e-07
-6.16262e-07
-2.66396e-06
-9.50214e-07
-1.87634e-06
-8.21361e-07
-7.17722e-07
-2.12968e-06
-2.35109e-07
-7.87622e-07
-8.9575e-07
-5.30033e-07
1.16494e-06
-2.64333e-06
-8.03998e-07
2.57527e-06
-4.58681e-06
-8.6007e-07
2.9648e-06
-6.24992e-06
-8.71473e-07
2.60517e-06
-7.2143e-06
-9.04955e-07
1.583e-06
-7.1329e-06
-9.62495e-07
-2.15965e-08
-5.79617e-06
-9.93496e-07
-1.99129e-06
-3.45226e-06
-9.31508e-07
-3.53036e-06
-1.03689e-06
-7.11576e-07
-3.49911e-06
-2.74143e-07
-1.22909e-06
-1.09332e-06
-3.26264e-07
1.08667e-06
-3.19235e-06
-5.05036e-07
2.52882e-06
-5.47948e-06
-5.42455e-07
2.87396e-06
-7.37714e-06
-5.47914e-07
2.35208e-06
-8.40896e-06
-5.63235e-07
1.06122e-06
-8.19797e-06
-5.89955e-07
-8.90934e-07
-6.55992e-06
-5.97464e-07
-3.12593e-06
-3.82768e-06
-5.53927e-07
-4.74151e-06
-1.10176e-06
-4.2648e-07
-4.42266e-06
-1.76905e-07
-1.50791e-06
-1.19208e-06
2.25704e-12
1.02184e-06
-3.46731e-06
2.02328e-12
2.45188e-06
-5.92152e-06
1.65594e-12
2.76051e-06
-7.9243e-06
1.18561e-12
2.14988e-06
-8.97414e-06
8.55485e-13
7.27631e-07
-8.68166e-06
6.232e-13
-1.37855e-06
-6.88749e-06
4.44321e-13
-3.72064e-06
-3.97084e-06
3.6402e-13
-5.3397e-06
-1.11267e-06
2.91389e-13
-4.85919e-06
2.35085e-13
-1.63446e-06
-1.19208e-06
3.26269e-07
1.02184e-06
-3.46731e-06
5.0504e-07
2.45188e-06
-5.92152e-06
5.42458e-07
2.76051e-06
-7.9243e-06
5.47916e-07
2.14988e-06
-8.97414e-06
5.63237e-07
7.27631e-07
-8.68166e-06
5.89956e-07
-1.37855e-06
-6.88749e-06
5.97465e-07
-3.72064e-06
-3.97084e-06
5.53928e-07
-5.3397e-06
-1.11267e-06
4.2648e-07
-4.85919e-06
1.76905e-07
-1.63446e-06
-1.09332e-06
5.3004e-07
1.08667e-06
-3.19236e-06
8.04003e-07
2.52881e-06
-5.47948e-06
8.60074e-07
2.87396e-06
-7.37714e-06
8.71475e-07
2.35208e-06
-8.40896e-06
9.04956e-07
1.06122e-06
-8.19797e-06
9.62496e-07
-8.90934e-07
-6.55992e-06
9.93496e-07
-3.12593e-06
-3.82768e-06
9.31508e-07
-4.74151e-06
-1.10176e-06
7.11576e-07
-4.42266e-06
2.74143e-07
-1.50791e-06
-8.95752e-07
5.19636e-07
1.16494e-06
-2.64333e-06
7.55553e-07
2.57527e-06
-4.58681e-06
8.00658e-07
2.9648e-06
-6.24992e-06
8.13683e-07
2.60517e-06
-7.2143e-06
8.56639e-07
1.583e-06
-7.1329e-06
9.31034e-07
-2.15968e-08
-5.79617e-06
9.93481e-07
-1.99129e-06
-3.45226e-06
9.50214e-07
-3.53036e-06
-1.03689e-06
7.17722e-07
-3.49911e-06
2.35109e-07
-1.22909e-06
-6.00082e-07
2.837e-07
1.12118e-06
-1.8214e-06
3.80053e-07
2.31905e-06
-3.22468e-06
3.95408e-07
2.69431e-06
-4.47935e-06
4.02598e-07
2.53055e-06
-5.27114e-06
4.32686e-07
1.89674e-06
-5.30112e-06
4.88309e-07
7.97826e-07
-4.38745e-06
5.4152e-07
-6.16262e-07
-2.66396e-06
5.33657e-07
-1.87634e-06
-8.21361e-07
3.96435e-07
-2.12968e-06
8.63264e-08
-7.87622e-07
-2.17977e-07
6.67806e-07
-7.18309e-07
1.24576e-06
-1.32329e-06
1.44755e-06
-1.90139e-06
1.44554e-06
-2.30624e-06
1.26185e-06
-2.37518e-06
8.67142e-07
-1.99196e-06
2.84499e-07
-1.19846e-06
-3.26577e-07
-3.31317e-07
-6.09082e-07
-2.4894e-07
-3.30843e-07
-4.32479e-07
1.43114e-06
-1.00131e-06
-5.81921e-07
2.49816e-06
-1.78605e-06
-5.82779e-07
2.81508e-06
-2.5525e-06
-5.38191e-07
2.75018e-06
-3.14584e-06
-5.03625e-07
2.35881e-06
-3.36064e-06
-5.03693e-07
1.58563e-06
-2.99279e-06
-5.2679e-07
4.43443e-07
-1.98066e-06
-5.23232e-07
-8.15472e-07
-6.73444e-07
-3.94722e-07
-1.52158e-06
-4.03034e-08
-8.82081e-07
-9.56096e-07
-7.54373e-07
2.39917e-06
-2.69942e-06
-1.08754e-06
4.56799e-06
-4.6272e-06
-1.09513e-06
5.13444e-06
-6.35224e-06
-9.99777e-07
4.71717e-06
-7.51863e-06
-9.09118e-07
3.46862e-06
-7.7508e-06
-8.62932e-07
1.38924e-06
-6.72611e-06
-8.48594e-07
-1.31915e-06
-4.42396e-06
-8.07636e-07
-3.89409e-06
-1.58638e-06
-6.24381e-07
-4.7376e-06
-1.55395e-07
-2.25891e-06
-1.45376e-06
-7.47071e-07
2.6114e-06
-4.00797e-06
-1.11624e-06
5.15818e-06
-6.72451e-06
-1.12571e-06
5.71193e-06
-9.01825e-06
-1.01564e-06
4.91477e-06
-1.04158e-05
-8.99404e-07
2.97081e-06
-1.04918e-05
-8.16442e-07
7.90479e-09
-8.91589e-06
-7.58715e-07
-3.65705e-06
-5.75873e-06
-7.01294e-07
-6.79386e-06
-2.02922e-06
-5.57516e-07
-7.29548e-06
-1.90684e-07
-3.22303e-06
-1.7896e-06
-4.52085e-07
2.58128e-06
-4.88468e-06
-6.87263e-07
5.19492e-06
-8.09226e-06
-6.92635e-07
5.64847e-06
-1.06895e-05
-6.18975e-07
4.55269e-06
-1.21461e-05
-5.36915e-07
2.15532e-06
-1.20304e-05
-4.70054e-07
-1.35307e-06
-1.00645e-05
-4.21166e-07
-5.42938e-06
-6.39851e-06
-3.83396e-07
-8.72538e-06
-2.20312e-06
-3.12332e-07
-8.86323e-06
-1.236e-07
-3.77812e-06
-1.95706e-06
1.75955e-12
2.52682e-06
-5.32049e-06
1.63379e-12
5.12805e-06
-8.76041e-06
1.41238e-12
5.50779e-06
-1.14834e-05
1.06253e-12
4.25394e-06
-1.29365e-05
8.13378e-13
1.6438e-06
-1.27019e-05
6.18047e-13
-2.08324e-06
-1.05387e-05
4.59387e-13
-6.30498e-06
-6.64385e-06
3.52655e-13
-9.61797e-06
-2.25788e-06
2.62726e-13
-9.55749e-06
2.18126e-13
-4.01594e-06
-1.95706e-06
4.52089e-07
2.52682e-06
-5.3205e-06
6.87266e-07
5.12805e-06
-8.76041e-06
6.92638e-07
5.50779e-06
-1.14834e-05
6.18977e-07
4.25394e-06
-1.29365e-05
5.36917e-07
1.6438e-06
-1.27019e-05
4.70055e-07
-2.08324e-06
-1.05387e-05
4.21167e-07
-6.30498e-06
-6.64385e-06
3.83397e-07
-9.61797e-06
-2.25788e-06
3.12332e-07
-9.55749e-06
1.236e-07
-4.01594e-06
-1.7896e-06
7.47076e-07
2.58128e-06
-4.88468e-06
1.11624e-06
5.19492e-06
-8.09226e-06
1.12571e-06
5.64847e-06
-1.06895e-05
1.01564e-06
4.55269e-06
-1.21461e-05
8.99405e-07
2.15532e-06
-1.20304e-05
8.16443e-07
-1.35307e-06
-1.00645e-05
7.58716e-07
-5.42938e-06
-6.39851e-06
7.01295e-07
-8.72538e-06
-2.20312e-06
5.57516e-07
-8.86323e-06
1.90684e-07
-3.77812e-06
-1.45376e-06
7.54378e-07
2.6114e-06
-4.00797e-06
1.08754e-06
5.15817e-06
-6.72451e-06
1.09513e-06
5.71193e-06
-9.01825e-06
9.99779e-07
4.91477e-06
-1.04158e-05
9.09119e-07
2.97081e-06
-1.04918e-05
8.62932e-07
7.90451e-09
-8.91589e-06
8.48595e-07
-3.65705e-06
-5.75873e-06
8.07636e-07
-6.79386e-06
-2.02922e-06
6.24382e-07
-7.29548e-06
1.55395e-07
-3.22303e-06
-9.56098e-07
4.32483e-07
2.39917e-06
-2.69942e-06
5.81924e-07
4.56799e-06
-4.6272e-06
5.82781e-07
5.13444e-06
-6.35224e-06
5.38191e-07
4.71717e-06
-7.51863e-06
5.03626e-07
3.46862e-06
-7.7508e-06
5.03693e-07
1.38924e-06
-6.72611e-06
5.2679e-07
-1.31915e-06
-4.42396e-06
5.23232e-07
-3.89409e-06
-1.58638e-06
3.94722e-07
-4.7376e-06
4.03034e-08
-2.25891e-06
-3.30847e-07
1.43114e-06
-1.00131e-06
2.49815e-06
-1.78606e-06
2.81508e-06
-2.55251e-06
2.75018e-06
-3.14584e-06
2.35881e-06
-3.36064e-06
1.58563e-06
-2.99279e-06
4.43443e-07
-1.98066e-06
-8.15472e-07
-6.73445e-07
-1.52158e-06
-8.82081e-07
-4.13093e-07
-5.61796e-07
2.40603e-06
-1.19636e-06
-7.3344e-07
4.01486e-06
-2.10652e-06
-6.78946e-07
4.40418e-06
-3.05176e-06
-5.31279e-07
4.2267e-06
-3.90781e-06
-3.77955e-07
3.59282e-06
-4.43617e-06
-2.78539e-07
2.39253e-06
-4.29393e-06
-2.58194e-07
5.59402e-07
-3.1826e-06
-3.09666e-07
-1.61714e-06
-1.31055e-06
-2.96097e-07
-3.09752e-06
7.38713e-10
-2.19337e-06
-1.23285e-06
-9.54813e-07
4.02504e-06
-3.36565e-06
-1.32643e-06
7.29378e-06
-5.68983e-06
-1.21699e-06
7.99667e-06
-7.84239e-06
-9.09053e-07
7.2475e-06
-9.49836e-06
-5.69884e-07
5.31652e-06
-1.02256e-05
-3.11799e-07
2.14974e-06
-9.4815e-06
-1.9605e-07
-2.1254e-06
-6.85311e-06
-2.49447e-07
-6.58269e-06
-2.84631e-06
-3.04641e-07
-8.73585e-06
-4.84968e-08
-5.05599e-06
-1.89236e-06
-9.28029e-07
4.47698e-06
-5.05913e-06
-1.32923e-06
8.32775e-06
-8.35373e-06
-1.20696e-06
8.9965e-06
-1.11833e-05
-8.63199e-07
7.69844e-06
-1.31172e-05
-4.74067e-07
4.80899e-06
-1.36705e-05
-1.54434e-07
4.03784e-07
-1.2338e-05
1.42953e-09
-5.18698e-06
-8.73519e-06
-5.06417e-08
-1.05955e-05
-3.57472e-06
-1.69007e-07
-1.25916e-05
-6.57752e-08
-6.78047e-06
-2.33585e-06
-5.54801e-07
4.5439e-06
-6.1824e-06
-8.05996e-07
8.51824e-06
-1.00559e-05
-7.25464e-07
9.04043e-06
-1.32032e-05
-5.02166e-07
7.339e-06
-1.51523e-05
-2.47319e-07
3.87764e-06
-1.54733e-05
-3.42519e-08
-1.15219e-06
-1.37104e-05
6.81596e-08
-7.25907e-06
-9.57439e-06
3.36695e-08
-1.29457e-05
-3.86889e-06
-5.99012e-08
-1.46778e-05
-4.15886e-08
-7.67119e-06
-2.55464e-06
1.28719e-12
4.52666e-06
-6.73188e-06
1.22371e-12
8.49929e-06
-1.0867e-05
1.07218e-12
8.91742e-06
-1.41268e-05
8.18e-13
7.01157e-06
-1.60332e-05
6.21794e-13
3.3029e-06
-1.62008e-05
4.71377e-13
-1.9499e-06
-1.4233e-05
3.64776e-13
-8.20457e-06
-9.87895e-06
2.73938e-13
-1.39384e-05
-3.9698e-06
2.23197e-13
-1.55265e-05
1.95395e-13
-8.02733e-06
-2.55464e-06
5.54803e-07
4.52666e-06
-6.73189e-06
8.05999e-07
8.49929e-06
-1.0867e-05
7.25466e-07
8.91742e-06
-1.41268e-05
5.02167e-07
7.01157e-06
-1.60332e-05
2.4732e-07
3.3029e-06
-1.62008e-05
3.42528e-08
-1.9499e-06
-1.4233e-05
-6.8159e-08
-8.20457e-06
-9.87895e-06
-3.36689e-08
-1.39384e-05
-3.9698e-06
5.99016e-08
-1.55265e-05
4.15889e-08
-8.02733e-06
-2.33585e-06
9.28031e-07
4.5439e-06
-6.1824e-06
1.32923e-06
8.51824e-06
-1.00559e-05
1.20696e-06
9.04043e-06
-1.32032e-05
8.632e-07
7.339e-06
-1.51523e-05
4.74068e-07
3.87764e-06
-1.54733e-05
1.54434e-07
-1.15219e-06
-1.37104e-05
-1.42909e-09
-7.25907e-06
-9.57439e-06
5.06422e-08
-1.29457e-05
-3.86889e-06
1.69007e-07
-1.46778e-05
6.57755e-08
-7.67119e-06
-1.89236e-06
9.54816e-07
4.47697e-06
-5.05913e-06
1.32644e-06
8.32774e-06
-8.35374e-06
1.21699e-06
8.9965e-06
-1.11833e-05
9.09054e-07
7.69844e-06
-1.31172e-05
5.69885e-07
4.80899e-06
-1.36705e-05
3.118e-07
4.03783e-07
-1.2338e-05
1.9605e-07
-5.18698e-06
-8.73519e-06
2.49447e-07
-1.05955e-05
-3.57472e-06
3.04642e-07
-1.25916e-05
4.84971e-08
-6.78047e-06
-1.23285e-06
5.61798e-07
4.02504e-06
-3.36565e-06
7.33442e-07
7.29378e-06
-5.68984e-06
6.78947e-07
7.99667e-06
-7.84239e-06
5.3128e-07
7.2475e-06
-9.49836e-06
3.77955e-07
5.31652e-06
-1.02256e-05
2.7854e-07
2.14974e-06
-9.4815e-06
2.58194e-07
-2.1254e-06
-6.85311e-06
3.09666e-07
-6.58269e-06
-2.84631e-06
2.96098e-07
-8.73585e-06
-7.38651e-10
-5.05599e-06
-4.13095e-07
2.40603e-06
-1.19636e-06
4.01486e-06
-2.10652e-06
4.40418e-06
-3.05176e-06
4.2267e-06
-3.90782e-06
3.59282e-06
-4.43617e-06
2.39252e-06
-4.29393e-06
5.59402e-07
-3.1826e-06
-1.61714e-06
-1.31056e-06
-3.09752e-06
-2.19337e-06
-5.03519e-07
-6.60596e-07
3.57015e-06
-1.34177e-06
-8.18346e-07
5.67146e-06
-2.29608e-06
-6.56902e-07
6.0154e-06
-3.37394e-06
-3.38643e-07
5.6432e-06
-4.54306e-06
2.66516e-08
4.73529e-06
-5.56787e-06
3.06308e-07
3.11102e-06
-5.93815e-06
4.06386e-07
5.23293e-07
-4.9704e-06
2.50363e-07
-2.83525e-06
-2.46317e-06
5.91818e-09
-5.61067e-06
1.03444e-08
-4.66689e-06
-1.46662e-06
-1.09912e-06
5.93019e-06
-3.83327e-06
-1.44419e-06
1.02863e-05
-6.3643e-06
-1.12696e-06
1.09978e-05
-8.82218e-06
-4.86113e-07
9.85285e-06
-1.09994e-05
2.34948e-07
7.28541e-06
-1.24766e-05
8.16928e-07
3.11634e-06
-1.24728e-05
1.05366e-06
-2.77647e-06
-9.99981e-06
7.91514e-07
-9.59682e-06
-4.85418e-06
2.48217e-07
-1.41238e-05
1.35087e-08
-9.91333e-06
-2.22258e-06
-1.0509e-06
6.65134e-06
-5.75092e-06
-1.41857e-06
1.18305e-05
-9.3344e-06
-1.07608e-06
1.25291e-05
-1.24862e-05
-3.85733e-07
1.07499e-05
-1.49134e-05
3.83705e-07
7.0874e-06
-1.61822e-05
9.96216e-07
1.49329e-06
-1.55914e-05
1.23352e-06
-5.9577e-06
-1.21897e-05
9.48616e-07
-1.41542e-05
-5.84555e-06
3.62022e-07
-1.90496e-05
2.01553e-08
-1.26327e-05
-2.7191e-06
-6.21308e-07
6.83341e-06
-6.98826e-06
-8.48455e-07
1.22173e-05
-1.11582e-05
-6.29693e-07
1.2764e-05
-1.45688e-05
-1.92529e-07
1.05564e-05
-1.69208e-05
2.90056e-07
6.32329e-06
-1.78587e-05
6.69235e-07
1.12728e-07
-1.68497e-05
7.9723e-07
-7.83188e-06
-1.30166e-05
6.07308e-07
-1.64374e-05
-6.21618e-06
2.41789e-07
-2.1358e-05
1.59361e-08
-1.38832e-05
-2.95837e-06
9.20835e-13
6.86372e-06
-7.57662e-06
9.00099e-13
1.22691e-05
-1.19932e-05
7.85082e-13
1.27043e-05
-1.54643e-05
6.22806e-13
1.02901e-05
-1.77065e-05
5.04215e-13
5.83515e-06
-1.84515e-05
4.12304e-13
-5.35628e-07
-1.72539e-05
3.02357e-13
-8.60491e-06
-1.3281e-05
2.31644e-13
-1.7304e-05
-6.34423e-06
1.71111e-13
-2.22215e-05
1.54546e-13
-1.43556e-05
-2.95837e-06
6.21309e-07
6.86372e-06
-7.57662e-06
8.48456e-07
1.22691e-05
-1.19932e-05
6.29695e-07
1.27043e-05
-1.54643e-05
1.9253e-07
1.02901e-05
-1.77065e-05
-2.90055e-07
5.83515e-06
-1.84515e-05
-6.69234e-07
-5.35628e-07
-1.72539e-05
-7.9723e-07
-8.60491e-06
-1.3281e-05
-6.07307e-07
-1.7304e-05
-6.34423e-06
-2.41789e-07
-2.22215e-05
-1.59358e-08
-1.43556e-05
-2.7191e-06
1.0509e-06
6.83341e-06
-6.98826e-06
1.41857e-06
1.22173e-05
-1.11582e-05
1.07608e-06
1.2764e-05
-1.45688e-05
3.85734e-07
1.05564e-05
-1.69208e-05
-3.83704e-07
6.32329e-06
-1.78587e-05
-9.96216e-07
1.12728e-07
-1.68497e-05
-1.23352e-06
-7.83188e-06
-1.30166e-05
-9.48615e-07
-1.64374e-05
-6.21618e-06
-3.62022e-07
-2.1358e-05
-2.0155e-08
-1.38832e-05
-2.22258e-06
1.09912e-06
6.65133e-06
-5.75092e-06
1.44419e-06
1.18305e-05
-9.3344e-06
1.12696e-06
1.25291e-05
-1.24862e-05
4.86114e-07
1.07499e-05
-1.49134e-05
-2.34947e-07
7.0874e-06
-1.61822e-05
-8.16927e-07
1.49329e-06
-1.55914e-05
-1.05365e-06
-5.9577e-06
-1.21897e-05
-7.91514e-07
-1.41542e-05
-5.84555e-06
-2.48217e-07
-1.90496e-05
-1.35085e-08
-1.26327e-05
-1.46662e-06
6.60597e-07
5.93019e-06
-3.83327e-06
8.18347e-07
1.02863e-05
-6.3643e-06
6.56903e-07
1.09978e-05
-8.82218e-06
3.38644e-07
9.85285e-06
-1.09994e-05
-2.66513e-08
7.28541e-06
-1.24766e-05
-3.06308e-07
3.11634e-06
-1.24728e-05
-4.06385e-07
-2.77647e-06
-9.99981e-06
-2.50363e-07
-9.59682e-06
-4.85418e-06
-5.91803e-09
-1.41238e-05
-1.03442e-08
-9.91333e-06
-5.0352e-07
3.57014e-06
-1.34177e-06
5.67146e-06
-2.29608e-06
6.0154e-06
-3.37395e-06
5.6432e-06
-4.54306e-06
4.73529e-06
-5.56787e-06
3.11102e-06
-5.93815e-06
5.23293e-07
-4.9704e-06
-2.83525e-06
-2.46317e-06
-5.61067e-06
-4.66689e-06
-6.93298e-07
-7.32068e-07
4.99551e-06
-1.50577e-06
-8.32698e-07
7.31663e-06
-2.33714e-06
-5.07977e-07
7.35474e-06
-3.39171e-06
5.92538e-08
6.63852e-06
-4.79741e-06
7.06972e-07
5.43402e-06
-6.41892e-06
1.27423e-06
3.4583e-06
-7.6223e-06
1.53427e-06
1.92409e-07
-7.24687e-06
1.23178e-06
-4.44246e-06
-4.28905e-06
4.9466e-07
-9.06316e-06
-6.4575e-08
-8.89136e-06
-1.74379e-06
-1.18617e-06
8.12807e-06
-4.12305e-06
-1.4407e-06
1.32735e-05
-6.4928e-06
-8.3631e-07
1.36958e-05
-8.87221e-06
2.30812e-07
1.20607e-05
-1.12983e-05
1.42994e-06
8.98855e-06
-1.34832e-05
2.42252e-06
4.15289e-06
-1.45704e-05
2.81112e-06
-2.96613e-06
-1.30074e-05
2.2434e-06
-1.21714e-05
-7.42322e-06
9.50097e-07
-2.01634e-05
-5.98542e-08
-1.73413e-05
-2.50152e-06
-1.11257e-06
9.07926e-06
-6.03361e-06
-1.38978e-06
1.53116e-05
-9.38857e-06
-7.64587e-07
1.58123e-05
-1.23289e-05
3.32536e-07
1.35885e-05
-1.48174e-05
1.53048e-06
9.47537e-06
-1.66199e-05
2.46287e-06
3.25541e-06
-1.70704e-05
2.73602e-06
-5.43209e-06
-1.47795e-05
2.1017e-06
-1.63034e-05
-8.3625e-06
8.69124e-07
-2.53856e-05
-3.14391e-08
-2.10236e-05
-2.97504e-06
-6.49556e-07
9.34542e-06
-7.20714e-06
-8.20589e-07
1.58802e-05
-1.10589e-05
-4.32553e-07
1.62837e-05
-1.41166e-05
2.42037e-07
1.37047e-05
-1.63568e-05
9.6007e-07
9.13383e-06
-1.77066e-05
1.48631e-06
2.43915e-06
-1.77325e-05
1.60352e-06
-6.67348e-06
-1.52078e-05
1.19129e-06
-1.80517e-05
-8.65307e-06
4.78178e-07
-2.75218e-05
-1.00511e-08
-2.25576e-05
-3.19441e-06
6.52631e-13
9.40857e-06
-7.7416e-06
6.62557e-13
1.59957e-05
-1.17803e-05
5.61127e-13
1.63105e-05
-1.48158e-05
4.61584e-13
1.35675e-05
-1.68663e-05
3.89204e-13
8.84575e-06
-1.79642e-05
2.91969e-13
2.0486e-06
-1.78367e-05
2.2523e-13
-7.12885e-06
-1.52954e-05
1.67448e-13
-1.86541e-05
-8.75853e-06
1.22296e-13
-2.82802e-05
9.58221e-14
-2.31242e-05
-3.19441e-06
6.49557e-07
9.40857e-06
-7.7416e-06
8.20591e-07
1.59957e-05
-1.17803e-05
4.32554e-07
1.63105e-05
-1.48158e-05
-2.42036e-07
1.35675e-05
-1.68663e-05
-9.6007e-07
8.84575e-06
-1.79642e-05
-1.48631e-06
2.0486e-06
-1.78367e-05
-1.60352e-06
-7.12885e-06
-1.52954e-05
-1.19129e-06
-1.86541e-05
-8.75853e-06
-4.78177e-07
-2.82802e-05
1.00513e-08
-2.31242e-05
-2.97504e-06
1.11258e-06
9.34542e-06
-7.20714e-06
1.38978e-06
1.58802e-05
-1.10589e-05
7.64587e-07
1.62837e-05
-1.41166e-05
-3.32536e-07
1.37047e-05
-1.63568e-05
-1.53048e-06
9.13383e-06
-1.77066e-05
-2.46287e-06
2.43915e-06
-1.77325e-05
-2.73602e-06
-6.67348e-06
-1.52078e-05
-2.1017e-06
-1.80517e-05
-8.65307e-06
-8.69124e-07
-2.75218e-05
3.14394e-08
-2.25576e-05
-2.50152e-06
1.18617e-06
9.07926e-06
-6.03361e-06
1.4407e-06
1.53116e-05
-9.38857e-06
8.36311e-07
1.58123e-05
-1.23289e-05
-2.30811e-07
1.35885e-05
-1.48174e-05
-1.42994e-06
9.47537e-06
-1.66199e-05
-2.42252e-06
3.25541e-06
-1.70704e-05
-2.81112e-06
-5.43209e-06
-1.47795e-05
-2.2434e-06
-1.63034e-05
-8.3625e-06
-9.50097e-07
-2.53856e-05
5.98543e-08
-2.10236e-05
-1.74379e-06
7.32069e-07
8.12807e-06
-4.12305e-06
8.32699e-07
1.32735e-05
-6.4928e-06
5.07978e-07
1.36958e-05
-8.87221e-06
-5.92535e-08
1.20607e-05
-1.12983e-05
-7.06972e-07
8.98855e-06
-1.34832e-05
-1.27423e-06
4.15289e-06
-1.45704e-05
-1.53427e-06
-2.96613e-06
-1.30074e-05
-1.23178e-06
-1.21714e-05
-7.42322e-06
-4.9466e-07
-2.01634e-05
6.45752e-08
-1.73413e-05
-6.93298e-07
4.99551e-06
-1.50577e-06
7.31663e-06
-2.33714e-06
7.35474e-06
-3.39171e-06
6.63852e-06
-4.79741e-06
5.43402e-06
-6.41892e-06
3.4583e-06
-7.6223e-06
1.92408e-07
-7.24688e-06
-4.44246e-06
-4.28905e-06
-9.06316e-06
-8.89136e-06
-1.22445e-06
-8.29405e-07
7.04937e-06
-1.82633e-06
-8.39752e-07
8.75826e-06
-2.17872e-06
-3.12878e-07
8.02002e-06
-2.81808e-06
5.33986e-07
6.74389e-06
-4.1273e-06
1.51607e-06
5.22718e-06
-6.17695e-06
2.44794e-06
3.06e-06
-8.42527e-06
2.98015e-06
-5.3941e-07
-9.23247e-06
2.58917e-06
-6.22443e-06
-6.50835e-06
1.20115e-06
-1.29884e-05
-2.9618e-07
-1.51035e-05
-2.36994e-06
-1.27291e-06
1.09415e-05
-4.36665e-06
-1.40905e-06
1.58395e-05
-5.87395e-06
-4.97518e-07
1.53878e-05
-7.34465e-06
9.78099e-07
1.30873e-05
-9.18121e-06
2.62517e-06
9.71602e-06
-1.14302e-05
4.02812e-06
4.82174e-06
-1.34977e-05
4.62018e-06
-2.53877e-06
-1.36472e-05
3.75971e-06
-1.31924e-05
-9.28563e-06
1.5715e-06
-2.48953e-05
-4.22137e-07
-2.65009e-05
-3.01227e-06
-1.15539e-06
1.1974e-05
-6.00525e-06
-1.32503e-06
1.82206e-05
-8.26031e-06
-4.29727e-07
1.79996e-05
-9.97798e-06
1.00674e-06
1.52776e-05
-1.14981e-05
2.54331e-06
1.10773e-05
-1.29915e-05
3.73066e-06
5.04628e-06
-1.42048e-05
4.05524e-06
-3.65377e-06
-1.38562e-05
3.0872e-06
-1.59795e-05
-9.46227e-06
1.15498e-06
-2.9363e-05
-3.44107e-07
-3.05639e-05
-3.3782e-06
-6.61691e-07
1.22299e-05
-6.93209e-06
-7.69849e-07
1.88789e-05
-9.51794e-06
-2.31303e-07
1.86711e-05
-1.11723e-05
6.24405e-07
1.57414e-05
-1.226e-05
1.50955e-06
1.12552e-05
-1.31469e-05
2.14507e-06
4.91167e-06
-1.3896e-05
2.24638e-06
-4.11552e-06
-1.35109e-05
1.63011e-06
-1.69798e-05
-9.41735e-06
5.64098e-07
-3.10244e-05
-1.76124e-07
-3.21429e-05
-3.53723e-06
4.46038e-13
1.22841e-05
-7.3269e-06
4.61192e-13
1.90155e-05
-1.0015e-05
3.85862e-13
1.87673e-05
-1.15692e-05
3.21622e-13
1.57461e-05
-1.24014e-05
2.57036e-13
1.11875e-05
-1.30119e-05
1.87677e-13
4.8042e-06
-1.36273e-05
1.6138e-13
-4.26705e-06
-1.33365e-05
1.243e-13
-1.73148e-05
-9.4285e-06
9.45959e-14
-3.16241e-05
8.27601e-14
-3.27288e-05
-3.53723e-06
6.61692e-07
1.22841e-05
-7.3269e-06
7.69849e-07
1.90155e-05
-1.0015e-05
2.31304e-07
1.87673e-05
-1.15692e-05
-6.24405e-07
1.57461e-05
-1.24014e-05
-1.50955e-06
1.11875e-05
-1.30119e-05
-2.14507e-06
4.8042e-06
-1.36273e-05
-2.24638e-06
-4.26705e-06
-1.33365e-05
-1.63011e-06
-1.73148e-05
-9.4285e-06
-5.64098e-07
-3.16241e-05
1.76125e-07
-3.27288e-05
-3.3782e-06
1.15539e-06
1.22299e-05
-6.93209e-06
1.32503e-06
1.88789e-05
-9.51794e-06
4.29728e-07
1.86711e-05
-1.11723e-05
-1.00674e-06
1.57414e-05
-1.226e-05
-2.54331e-06
1.12552e-05
-1.31469e-05
-3.73066e-06
4.91167e-06
-1.3896e-05
-4.05523e-06
-4.11552e-06
-1.35109e-05
-3.0872e-06
-1.69798e-05
-9.41735e-06
-1.15498e-06
-3.10244e-05
3.44107e-07
-3.21429e-05
-3.01227e-06
1.27291e-06
1.1974e-05
-6.00525e-06
1.40905e-06
1.82206e-05
-8.26031e-06
4.97519e-07
1.79996e-05
-9.97798e-06
-9.78099e-07
1.52776e-05
-1.14981e-05
-2.62517e-06
1.10773e-05
-1.29915e-05
-4.02812e-06
5.04628e-06
-1.42048e-05
-4.62018e-06
-3.65377e-06
-1.38562e-05
-3.75971e-06
-1.59795e-05
-9.46227e-06
-1.5715e-06
-2.9363e-05
4.22138e-07
-3.05639e-05
-2.36994e-06
8.29406e-07
1.09415e-05
-4.36665e-06
8.39752e-07
1.58395e-05
-5.87395e-06
3.12878e-07
1.53878e-05
-7.34465e-06
-5.33986e-07
1.30873e-05
-9.18121e-06
-1.51607e-06
9.71602e-06
-1.14302e-05
-2.44794e-06
4.82174e-06
-1.34977e-05
-2.98015e-06
-2.53877e-06
-1.36472e-05
-2.58917e-06
-1.31924e-05
-9.28563e-06
-1.20115e-06
-2.48953e-05
2.9618e-07
-2.65009e-05
-1.22445e-06
7.04937e-06
-1.82633e-06
8.75826e-06
-2.17872e-06
8.02002e-06
-2.81808e-06
6.74389e-06
-4.1273e-06
5.22718e-06
-6.17695e-06
3.06e-06
-8.42527e-06
-5.3941e-07
-9.23248e-06
-6.22443e-06
-6.50835e-06
-1.29884e-05
-1.51035e-05
-2.47057e-06
-1.0832e-06
1.06031e-05
-2.22536e-06
-1.07488e-06
9.58793e-06
-1.27569e-06
-3.87097e-07
7.45744e-06
-7.234e-07
6.79451e-07
5.51215e-06
-1.21285e-06
1.91069e-06
3.80594e-06
-3.0735e-06
3.14434e-06
1.77631e-06
-6.14453e-06
4.02847e-06
-1.49684e-06
-8.68104e-06
3.68408e-06
-7.37201e-06
-7.6703e-06
1.62173e-06
-1.56209e-05
-1.01391e-06
-2.17599e-05
-4.01303e-06
-1.52936e-06
1.54007e-05
-4.65523e-06
-1.65718e-06
1.7064e-05
-3.8536e-06
-5.85828e-07
1.47849e-05
-2.8931e-06
1.07442e-06
1.17318e-05
-2.6309e-06
2.93134e-06
8.43316e-06
-3.55284e-06
4.59262e-06
4.29541e-06
-5.71891e-06
5.49898e-06
-1.84322e-06
-8.03749e-06
4.6015e-06
-1.17912e-05
-7.43797e-06
1.62368e-06
-2.54968e-05
-1.3817e-06
-3.35711e-05
-4.62212e-06
-1.30577e-06
1.63725e-05
-5.9673e-06
-1.47016e-06
1.93788e-05
-5.49882e-06
-4.80856e-07
1.74261e-05
-4.32207e-06
1.03087e-06
1.41444e-05
-3.25921e-06
2.63914e-06
1.03067e-05
-2.95031e-06
3.94678e-06
5.38321e-06
-3.84588e-06
4.46518e-06
-1.7244e-06
-5.75175e-06
3.45947e-06
-1.29316e-05
-5.99551e-06
1.02235e-06
-2.8518e-05
-1.01985e-06
-3.69212e-05
-4.88473e-06
-7.20853e-07
1.65297e-05
-6.58989e-06
-8.24878e-07
1.99388e-05
-6.25945e-06
-2.49823e-07
1.81096e-05
-4.88696e-06
6.168e-07
1.4783e-05
-3.31419e-06
1.50607e-06
1.08155e-05
-2.33568e-06
2.17951e-06
5.70042e-06
-2.6857e-06
2.37487e-06
-1.67519e-06
-4.6337e-06
1.74887e-06
-1.33212e-05
-5.48766e-06
4.64489e-07
-2.96126e-05
-4.88356e-07
-3.81621e-05
-4.97808e-06
2.57421e-13
1.65413e-05
-6.81505e-06
2.60865e-13
2.00276e-05
-6.50853e-06
2.33211e-13
1.8211e-05
-5.01397e-06
2.19594e-13
1.48684e-05
-3.20731e-06
1.76327e-13
1.08869e-05
-1.98175e-06
1.2913e-13
5.75816e-06
-2.20109e-06
1.30479e-13
-1.67285e-06
-4.28668e-06
1.08276e-13
-1.34804e-05
-5.41135e-06
9.50679e-14
-3.00349e-05
7.80147e-14
-3.86285e-05
-4.97808e-06
7.20853e-07
1.65413e-05
-6.81505e-06
8.24879e-07
2.00276e-05
-6.50853e-06
2.49824e-07
1.8211e-05
-5.01397e-06
-6.16799e-07
1.48684e-05
-3.20731e-06
-1.50607e-06
1.08869e-05
-1.98175e-06
-2.17951e-06
5.75816e-06
-2.20109e-06
-2.37487e-06
-1.67285e-06
-4.28668e-06
-1.74887e-06
-1.34804e-05
-5.41135e-06
-4.64489e-07
-3.00349e-05
4.88356e-07
-3.86285e-05
-4.88473e-06
1.30577e-06
1.65297e-05
-6.58989e-06
1.47016e-06
1.99388e-05
-6.25945e-06
4.80856e-07
1.81096e-05
-4.88696e-06
-1.03087e-06
1.4783e-05
-3.31419e-06
-2.63914e-06
1.08155e-05
-2.33568e-06
-3.94678e-06
5.70042e-06
-2.6857e-06
-4.46518e-06
-1.67519e-06
-4.6337e-06
-3.45947e-06
-1.33212e-05
-5.48766e-06
-1.02235e-06
-2.96126e-05
1.01985e-06
-3.81621e-05
-4.62212e-06
1.52936e-06
1.63725e-05
-5.9673e-06
1.65718e-06
1.93788e-05
-5.49882e-06
5.85828e-07
1.74261e-05
-4.32207e-06
-1.07442e-06
1.41444e-05
-3.25921e-06
-2.93134e-06
1.03067e-05
-2.95031e-06
-4.59262e-06
5.38321e-06
-3.84588e-06
-5.49898e-06
-1.7244e-06
-5.75175e-06
-4.6015e-06
-1.29316e-05
-5.99551e-06
-1.62368e-06
-2.8518e-05
1.3817e-06
-3.69212e-05
-4.01303e-06
1.0832e-06
1.54007e-05
-4.65523e-06
1.07488e-06
1.7064e-05
-3.8536e-06
3.87096e-07
1.47849e-05
-2.8931e-06
-6.79451e-07
1.17318e-05
-2.6309e-06
-1.91069e-06
8.43316e-06
-3.55284e-06
-3.14434e-06
4.29541e-06
-5.71891e-06
-4.02847e-06
-1.84322e-06
-8.03749e-06
-3.68408e-06
-1.17912e-05
-7.43797e-06
-1.62173e-06
-2.54968e-05
1.01391e-06
-3.35711e-05
-2.47057e-06
1.06031e-05
-2.22536e-06
9.58793e-06
-1.27569e-06
7.45744e-06
-7.23401e-07
5.51215e-06
-1.21285e-06
3.80594e-06
-3.0735e-06
1.77631e-06
-6.14453e-06
-1.49684e-06
-8.68104e-06
-7.37201e-06
-7.6703e-06
-1.56209e-05
-2.17599e-05
-2.66874e-06
-1.85789e-06
1.51298e-05
5.20635e-07
-1.9888e-06
8.38736e-06
4.56058e-06
-1.19829e-06
4.61578e-06
7.42284e-06
-1.42654e-07
2.79255e-06
8.60801e-06
1.09843e-06
1.52235e-06
7.67641e-06
2.38287e-06
3.25034e-07
4.36298e-06
3.54973e-06
-1.73315e-06
-6.13073e-07
3.44911e-06
-5.84506e-06
-3.46921e-06
9.01092e-07
-1.36659e-05
-2.72299e-06
-2.25061e-05
-4.76474e-06
-2.23257e-06
2.05401e-05
-7.60597e-07
-2.67698e-06
1.37481e-05
5.16822e-06
-1.76569e-06
9.42346e-06
1.03177e-05
-2.91704e-07
6.73138e-06
1.39927e-05
1.37606e-06
4.48057e-06
1.55097e-05
3.00945e-06
2.15181e-06
1.40617e-05
4.26965e-06
-1.11515e-06
9.33147e-06
3.83497e-06
-7.44685e-06
3.09883e-06
6.89801e-07
-1.90529e-05
-2.76554e-06
-3.04297e-05
-5.52624e-06
-1.70974e-06
2.1376e-05
-1.71519e-06
-2.16931e-06
1.506e-05
4.3717e-06
-1.4378e-06
1.10114e-05
1.02023e-05
-2.32013e-07
8.25405e-06
1.50152e-05
1.11198e-06
5.75791e-06
1.80137e-05
2.35385e-06
3.04024e-06
1.79507e-05
3.19463e-06
-5.86396e-07
1.37304e-05
2.74436e-06
-7.62068e-06
5.72336e-06
4.29036e-07
-2.02502e-05
-1.73309e-06
-3.22303e-05
-5.72074e-06
-8.88222e-07
2.1429e-05
-2.04892e-06
-1.15342e-06
1.52511e-05
4.03984e-06
-7.52576e-07
1.13357e-05
1.00821e-05
-1.04733e-07
8.61343e-06
1.53103e-05
6.06197e-07
6.09317e-06
1.88379e-05
1.23766e-06
3.28899e-06
1.91755e-05
1.62556e-06
-4.43775e-07