/*--------------------------------*- C++ -*----------------------------------*\
  =========                 |
  \\      /  F ield         | OpenFOAM: The Open Source CFD Toolbox
   \\    /   O peration     | Website:  https://openfoam.org
    \\  /    A nd           | Version:  9
     \\/     M anipulation  |
\*---------------------------------------------------------------------------*/
FoamFile
{
    format      ascii;
    class       volVectorField;
    location    "0.76";
    object      U;
}
// * * * * * * * * * * * * * * * * * * * * * * * * * * * * * * * * * * * * * //

dimensions      [0 1 -1 0 0 0 0];

internalField   nonuniform List<vector> 
1000
(
(2.72368e-05 -0.000508519 0.000341537)
(-0.00140841 -0.000475517 0.00107574)
(-0.00458328 -0.000432959 0.00143342)
(-0.00797375 -0.0005432 0.00158948)
(-0.0108817 -0.000851471 0.00155722)
(-0.0123468 -0.00131849 0.00124516)
(-0.0114299 -0.00178122 0.000640903)
(-0.00787469 -0.00194932 -2.65436e-05)
(-0.00262793 -0.00155216 -0.000224001)
(0.000109975 -0.000464669 0.000374174)
(-0.000154873 -0.00180516 0.000596655)
(-0.00344436 -0.00223048 0.00230397)
(-0.0101527 -0.00231609 0.00305973)
(-0.0170475 -0.00265324 0.00315791)
(-0.022637 -0.00341723 0.00266999)
(-0.0251368 -0.00450502 0.00149841)
(-0.0229138 -0.00549617 -0.00021814)
(-0.0156661 -0.00568896 -0.00174819)
(-0.0054534 -0.00450326 -0.0017701)
(-9.80866e-06 -0.00166473 0.000230378)
(-0.000353671 -0.00270764 0.000287591)
(-0.00499397 -0.00380692 0.00235464)
(-0.0140634 -0.00413256 0.0032504)
(-0.0231544 -0.00458676 0.00320449)
(-0.0302495 -0.00544685 0.00228458)
(-0.0330636 -0.00659248 0.000419148)
(-0.0295925 -0.00748393 -0.00209033)
(-0.0196701 -0.00741761 -0.00400859)
(-0.00628922 -0.00585155 -0.00347223)
(0.000346395 -0.00248634 -5.07451e-05)
(-0.000497994 -0.00229744 -0.000126927)
(-0.00605588 -0.00337328 0.00199865)
(-0.0166833 -0.00370838 0.002914)
(-0.0271661 -0.00407423 0.00273799)
(-0.0351311 -0.00470673 0.00150901)
(-0.0379223 -0.00551031 -0.000817032)
(-0.0333721 -0.00605079 -0.00379614)
(-0.0215878 -0.00586861 -0.00582589)
(-0.00623746 -0.00462608 -0.00472224)
(0.000821905 -0.00208213 -0.000245599)
(-0.000576142 -0.000887834 -0.000385603)
(-0.00660395 -0.00132519 0.00172404)
(-0.0180126 -0.00146324 0.00263075)
(-0.0291725 -0.00159981 0.00238114)
(-0.0375236 -0.00182449 0.000991503)
(-0.0402368 -0.00210048 -0.00156647)
(-0.0350791 -0.00227833 -0.0047417)
(-0.022331 -0.00218984 -0.00677439)
(-0.00604307 -0.00172715 -0.00533972)
(0.00112258 -0.000796987 -0.000333781)
(-0.000576144 0.000887888 -0.000385605)
(-0.00660395 0.00132524 0.00172404)
(-0.0180126 0.00146328 0.00263075)
(-0.0291725 0.00159983 0.00238114)
(-0.0375236 0.00182451 0.000991503)
(-0.0402368 0.00210049 -0.00156647)
(-0.0350791 0.00227834 -0.0047417)
(-0.022331 0.00218984 -0.00677439)
(-0.00604307 0.00172716 -0.00533972)
(0.00112258 0.000796991 -0.000333781)
(-0.000498001 0.00229751 -0.000126934)
(-0.0060559 0.00337334 0.00199864)
(-0.0166833 0.00370842 0.002914)
(-0.0271661 0.00407425 0.00273799)
(-0.0351311 0.00470675 0.00150901)
(-0.0379223 0.00551032 -0.000817033)
(-0.0333721 0.0060508 -0.00379614)
(-0.0215878 0.00586861 -0.00582589)
(-0.00623746 0.00462608 -0.00472224)
(0.000821904 0.00208213 -0.000245598)
(-0.000353693 0.00270777 0.000287571)
(-0.00499401 0.00380699 0.00235463)
(-0.0140635 0.0041326 0.00325039)
(-0.0231544 0.00458679 0.00320448)
(-0.0302495 0.00544686 0.00228458)
(-0.0330636 0.00659249 0.000419146)
(-0.0295925 0.00748393 -0.00209033)
(-0.0196701 0.00741762 -0.00400859)
(-0.00628922 0.00585155 -0.00347223)
(0.000346394 0.00248635 -5.07448e-05)
(-0.000154937 0.00180544 0.000596593)
(-0.00344446 0.00223058 0.00230395)
(-0.0101527 0.00231614 0.00305972)
(-0.0170475 0.00265326 0.00315791)
(-0.022637 0.00341724 0.00266998)
(-0.0251368 0.00450503 0.00149841)
(-0.0229138 0.00549617 -0.000218141)
(-0.0156662 0.00568896 -0.00174819)
(-0.0054534 0.00450326 -0.0017701)
(-9.80954e-06 0.00166473 0.000230379)
(2.70248e-05 0.000508722 0.000341329)
(-0.0014087 0.000475573 0.00107569)
(-0.00458339 0.00043298 0.0014334)
(-0.0079738 0.000543209 0.00158947)
(-0.0108817 0.000851476 0.00155722)
(-0.0123469 0.00131849 0.00124516)
(-0.0114299 0.00178122 0.000640902)
(-0.0078747 0.00194932 -2.65439e-05)
(-0.00262793 0.00155216 -0.000224001)
(0.000109974 0.00046467 0.000374174)
(-0.000626993 -0.00145271 0.00345658)
(-0.00410617 -0.00187083 0.00693568)
(-0.0101533 -0.00191041 0.00829821)
(-0.016382 -0.00194345 0.0084956)
(-0.0216111 -0.00212194 0.00762788)
(-0.0242716 -0.00246611 0.00546092)
(-0.0228092 -0.00282137 0.0021111)
(-0.016574 -0.00283813 -0.0013603)
(-0.00680718 -0.00208491 -0.00277882)
(-0.000657141 -0.000316906 -0.000517423)
(-0.00195982 -0.00430178 0.00577632)
(-0.0108386 -0.00605796 0.0131785)
(-0.0252336 -0.00636041 0.0158232)
(-0.0393192 -0.00647754 0.0152532)
(-0.0502386 -0.00690776 0.011828)
(-0.0548873 -0.00767473 0.00546055)
(-0.0505726 -0.00837496 -0.00291008)
(-0.036517 -0.00813119 -0.0101636)
(-0.0157693 -0.00606949 -0.0111004)
(-0.00214923 -0.00164242 -0.00291368)
(-0.00303397 -0.00573616 0.00558623)
(-0.0159968 -0.00863989 0.0143602)
(-0.0363224 -0.00923102 0.0172566)
(-0.0554796 -0.00937183 0.015643)
(-0.0694942 -0.00978353 0.00992016)
(-0.0745 -0.0104822 0.000273425)
(-0.0674065 -0.0109533 -0.0114332)
(-0.0477534 -0.0103372 -0.0203406)
(-0.0201098 -0.00785155 -0.0192016)
(-0.0025262 -0.00284871 -0.00517547)
(-0.00374631 -0.00464219 0.00472047)
(-0.0194649 -0.00720301 0.013698)
(-0.0437034 -0.00774236 0.0164285)
(-0.0659643 -0.00782801 0.0139177)
(-0.08157 -0.00806286 0.00654008)
(-0.0862423 -0.00846196 -0.00523171)
(-0.0768578 -0.00859959 -0.0188162)
(-0.0535015 -0.00799089 -0.0281745)
(-0.0217915 -0.00613747 -0.0249416)
(-0.00236342 -0.00248214 -0.00667797)
(-0.00409886 -0.00175961 0.00410679)
(-0.0212062 -0.0027622 0.0130046)
(-0.0473941 -0.00297451 0.0155634)
(-0.0711215 -0.00299796 0.0125503)
(-0.0873694 -0.00306299 0.00432419)
(-0.0916886 -0.00317792 -0.00845169)
(-0.081032 -0.00318821 -0.0228047)
(-0.0558469 -0.00294264 -0.0321718)
(-0.0222885 -0.00227484 -0.0277398)
(-0.00217357 -0.000963368 -0.00737727)
(-0.00409886 0.00175966 0.00410679)
(-0.0212062 0.00276224 0.0130046)
(-0.0473941 0.00297454 0.0155634)
(-0.0711215 0.00299798 0.0125503)
(-0.0873694 0.00306301 0.00432419)
(-0.0916886 0.00317793 -0.00845169)
(-0.081032 0.00318822 -0.0228047)
(-0.0558469 0.00294264 -0.0321718)
(-0.0222885 0.00227485 -0.0277398)
(-0.00217357 0.000963372 -0.00737727)
(-0.00374632 0.00464225 0.00472046)
(-0.0194649 0.00720306 0.0136979)
(-0.0437034 0.0077424 0.0164285)
(-0.0659644 0.00782803 0.0139177)
(-0.08157 0.00806287 0.00654008)
(-0.0862423 0.00846197 -0.00523171)
(-0.0768578 0.00859959 -0.0188162)
(-0.0535016 0.0079909 -0.0281745)
(-0.0217915 0.00613747 -0.0249416)
(-0.00236342 0.00248214 -0.00667797)
(-0.00303398 0.00573623 0.00558619)
(-0.0159969 0.00863994 0.0143601)
(-0.0363224 0.00923106 0.0172566)
(-0.0554796 0.00937185 0.015643)
(-0.0694942 0.00978354 0.00992016)
(-0.0745001 0.0104822 0.000273422)
(-0.0674065 0.0109534 -0.0114332)
(-0.0477534 0.0103372 -0.0203406)
(-0.0201098 0.00785155 -0.0192016)
(-0.0025262 0.00284872 -0.00517547)
(-0.00195985 0.00430188 0.00577622)
(-0.0108386 0.00605801 0.0131784)
(-0.0252337 0.00636044 0.0158232)
(-0.0393192 0.00647756 0.0152531)
(-0.0502387 0.00690777 0.0118279)
(-0.0548873 0.00767474 0.00546055)
(-0.0505726 0.00837496 -0.00291008)
(-0.036517 0.00813119 -0.0101636)
(-0.0157693 0.00606949 -0.0111004)
(-0.00214923 0.00164242 -0.00291368)
(-0.00062705 0.00145276 0.00345629)
(-0.00410627 0.00187086 0.00693558)
(-0.0101534 0.00191043 0.00829817)
(-0.0163821 0.00194346 0.00849559)
(-0.0216111 0.00212194 0.00762787)
(-0.0242716 0.00246611 0.00546091)
(-0.0228092 0.00282137 0.0021111)
(-0.016574 0.00283813 -0.0013603)
(-0.00680718 0.00208491 -0.00277882)
(-0.000657142 0.000316907 -0.000517424)
(-0.00110019 -0.00226416 0.0101055)
(-0.00598093 -0.00299724 0.0181104)
(-0.0138788 -0.00298276 0.0207292)
(-0.0219833 -0.0027687 0.0204924)
(-0.0291542 -0.00263553 0.0177454)
(-0.0336114 -0.00272489 0.0120964)
(-0.0331548 -0.00296194 0.00379554)
(-0.0260285 -0.00300311 -0.00498799)
(-0.0125746 -0.00222306 -0.00941494)
(-0.00218087 -5.12331e-05 -0.00466212)
(-0.00346527 -0.0063995 0.0168651)
(-0.0167218 -0.00902066 0.0332378)
(-0.0367317 -0.00906804 0.0380036)
(-0.0559508 -0.00834944 0.0353376)
(-0.071227 -0.00774477 0.0262553)
(-0.078965 -0.00759971 0.0108276)
(-0.0754352 -0.00774181 -0.00897092)
(-0.0581114 -0.00750362 -0.0268428)
(-0.0286355 -0.00567483 -0.0312617)
(-0.00545896 -0.000950735 -0.0130995)
(-0.00539596 -0.00818859 0.0179718)
(-0.0252146 -0.0121715 0.0372017)
(-0.0541127 -0.0122967 0.0420149)
(-0.0805448 -0.0111613 0.0365392)
(-0.100002 -0.00999692 0.0220723)
(-0.108119 -0.00923214 -0.000568815)
(-0.100942 -0.00875996 -0.0274718)
(-0.0762069 -0.0081675 -0.0492653)
(-0.036873 -0.00641018 -0.0501562)
(-0.00675054 -0.00196761 -0.0196268)
(-0.00669629 -0.0064691 0.0173218)
(-0.030967 -0.00985741 0.0370049)
(-0.0656912 -0.00994962 0.0411211)
(-0.0963571 -0.00890953 0.0333441)
(-0.117653 -0.00775355 0.0151684)
(-0.125002 -0.00683136 -0.0118181)
(-0.114739 -0.00615896 -0.0423964)
(-0.0852564 -0.00562729 -0.0652755)
(-0.0404466 -0.00456388 -0.0625926)
(-0.00702345 -0.00172809 -0.0236532)
(-0.00734165 -0.00242363 0.0166678)
(-0.0338441 -0.00372853 0.0362112)
(-0.0714286 -0.00375715 0.0397853)
(-0.104005 -0.00333618 0.030755)
(-0.125892 -0.00285376 0.0107534)
(-0.132536 -0.00244543 -0.0181492)
(-0.120578 -0.00214651 -0.0500941)
(-0.0888516 -0.00194679 -0.0730421)
(-0.0416989 -0.00161284 -0.0683733)
(-0.00701645 -0.000669237 -0.025456)
(-0.00734165 0.00242367 0.0166678)
(-0.0338441 0.00372856 0.0362112)
(-0.0714286 0.00375718 0.0397853)
(-0.104005 0.0033362 0.030755)
(-0.125892 0.00285377 0.0107534)
(-0.132536 0.00244544 -0.0181492)
(-0.120578 0.00214652 -0.0500941)
(-0.0888516 0.0019468 -0.0730421)
(-0.0416989 0.00161284 -0.0683733)
(-0.00701645 0.000669241 -0.025456)
(-0.0066963 0.00646914 0.0173217)
(-0.030967 0.00985744 0.0370048)
(-0.0656912 0.00994964 0.0411211)
(-0.0963571 0.00890955 0.0333441)
(-0.117653 0.00775356 0.0151684)
(-0.125002 0.00683137 -0.0118181)
(-0.114739 0.00615897 -0.0423964)
(-0.0852564 0.00562729 -0.0652756)
(-0.0404466 0.00456388 -0.0625926)
(-0.00702345 0.00172809 -0.0236532)
(-0.00539597 0.00818864 0.0179718)
(-0.0252146 0.0121716 0.0372016)
(-0.0541127 0.0122967 0.0420149)
(-0.0805448 0.0111613 0.0365392)
(-0.100002 0.00999693 0.0220723)
(-0.108119 0.00923215 -0.000568818)
(-0.100942 0.00875996 -0.0274718)
(-0.0762069 0.00816751 -0.0492653)
(-0.036873 0.00641019 -0.0501562)
(-0.00675054 0.00196761 -0.0196268)
(-0.00346528 0.00639955 0.016865)
(-0.0167219 0.00902069 0.0332378)
(-0.0367317 0.00906806 0.0380035)
(-0.0559508 0.00834945 0.0353376)
(-0.071227 0.00774477 0.0262552)
(-0.078965 0.00759972 0.0108276)
(-0.0754352 0.00774181 -0.00897092)
(-0.0581114 0.00750363 -0.0268428)
(-0.0286355 0.00567484 -0.0312617)
(-0.00545896 0.000950736 -0.0130995)
(-0.00110021 0.00226418 0.0101054)
(-0.00598097 0.00299726 0.0181103)
(-0.0138788 0.00298276 0.0207292)
(-0.0219834 0.0027687 0.0204924)
(-0.0291543 0.00263554 0.0177454)
(-0.0336114 0.00272489 0.0120964)
(-0.0331548 0.00296194 0.00379554)
(-0.0260285 0.00300311 -0.00498799)
(-0.0125746 0.00222306 -0.00941494)
(-0.00218087 5.12329e-05 -0.00466212)
(-0.00146774 -0.00297282 0.0188853)
(-0.00731196 -0.00386184 0.0321907)
(-0.0164134 -0.0035877 0.0358321)
(-0.0259738 -0.00287638 0.0347317)
(-0.0353513 -0.00217057 0.0296746)
(-0.0428498 -0.0017932 0.0199031)
(-0.0454581 -0.0018799 0.00530292)
(-0.0393793 -0.00224879 -0.0112169)
(-0.0225555 -0.00198255 -0.0213111)
(-0.00547846 0.000130306 -0.0136465)
(-0.00467109 -0.00820646 0.0315748)
(-0.021253 -0.0112117 0.058549)
(-0.0453937 -0.0103635 0.0650325)
(-0.0686809 -0.00798338 0.0593427)
(-0.088551 -0.00543652 0.0435253)
(-0.101485 -0.00362798 0.0174519)
(-0.102458 -0.00298593 -0.0168512)
(-0.0856022 -0.00351996 -0.0505257)
(-0.0486154 -0.00353852 -0.0636065)
(-0.0117623 -0.00017268 -0.033063)
(-0.00728851 -0.0102499 0.0347848)
(-0.0324191 -0.0146307 0.0664692)
(-0.0677147 -0.0133724 0.0726694)
(-0.0996979 -0.0097506 0.0622264)
(-0.124471 -0.00567338 0.0379327)
(-0.137884 -0.00238987 0.000823013)
(-0.134933 -0.000788782 -0.0446845)
(-0.109918 -0.00128517 -0.085674)
(-0.061403 -0.00234597 -0.0955122)
(-0.0144421 -0.000675329 -0.0458837)
(-0.00905027 -0.00796352 0.0349008)
(-0.0399452 -0.0115969 0.0674796)
(-0.0823956 -0.010467 0.0723819)
(-0.119117 -0.00728543 0.0582767)
(-0.145504 -0.00364737 0.0285904)
(-0.157619 -0.000624463 -0.014485)
(-0.151096 0.000832937 -0.064957)
(-0.121034 0.000336039 -0.108035)
(-0.0668207 -0.000980443 -0.114237)
(-0.0153686 -0.000575073 -0.0529917)
(-0.00991848 -0.00295763 0.0345055)
(-0.0436656 -0.00433812 0.0669834)
(-0.0895378 -0.00388453 0.0709542)
(-0.128235 -0.00263167 0.054937)
(-0.154881 -0.0011971 0.0227824)
(-0.165851 -4.00036e-06 -0.0226325)
(-0.157382 0.000567264 -0.0746851)
(-0.125118 0.000344203 -0.118026)
(-0.0687394 -0.000228928 -0.122268)
(-0.0156464 -0.00021647 -0.0559568)
(-0.00991848 0.00295765 0.0345055)
(-0.0436656 0.00433815 0.0669834)
(-0.0895378 0.00388455 0.0709542)
(-0.128235 0.00263168 0.054937)
(-0.154881 0.00119711 0.0227824)
(-0.165851 4.00966e-06 -0.0226325)
(-0.157382 -0.000567257 -0.0746851)
(-0.125118 -0.000344198 -0.118026)
(-0.0687394 0.000228932 -0.122268)
(-0.0156464 0.000216474 -0.0559568)
(-0.00905027 0.00796355 0.0349008)
(-0.0399452 0.0115969 0.0674796)
(-0.0823956 0.010467 0.0723819)
(-0.119117 0.00728544 0.0582767)
(-0.145504 0.00364738 0.0285904)
(-0.157619 0.000624471 -0.014485)
(-0.151096 -0.000832931 -0.064957)
(-0.121034 -0.000336034 -0.108035)
(-0.0668207 0.000980447 -0.114237)
(-0.0153686 0.000575077 -0.0529917)
(-0.00728852 0.0102499 0.0347848)
(-0.0324191 0.0146307 0.0664691)
(-0.0677147 0.0133724 0.0726694)
(-0.0996979 0.00975061 0.0622264)
(-0.124471 0.00567339 0.0379327)
(-0.137884 0.00238987 0.000823008)
(-0.134933 0.000788787 -0.0446845)
(-0.109918 0.00128517 -0.085674)
(-0.061403 0.00234597 -0.0955122)
(-0.0144421 0.000675332 -0.0458837)
(-0.0046711 0.00820648 0.0315747)
(-0.021253 0.0112117 0.0585489)
(-0.0453937 0.0103635 0.0650325)
(-0.0686809 0.00798339 0.0593426)
(-0.088551 0.00543652 0.0435253)
(-0.101485 0.00362799 0.0174519)
(-0.102458 0.00298593 -0.0168512)
(-0.0856022 0.00351996 -0.0505257)
(-0.0486154 0.00353852 -0.0636065)
(-0.0117623 0.000172682 -0.033063)
(-0.00146775 0.00297283 0.0188852)
(-0.00731198 0.00386184 0.0321907)
(-0.0164134 0.0035877 0.0358321)
(-0.0259738 0.00287638 0.0347317)
(-0.0353513 0.00217057 0.0296746)
(-0.0428498 0.0017932 0.0199031)
(-0.0454581 0.0018799 0.00530292)
(-0.0393793 0.00224879 -0.0112169)
(-0.0225555 0.00198255 -0.0213111)
(-0.00547846 -0.000130306 -0.0136465)
(-0.00199983 -0.00352613 0.029593)
(-0.00856824 -0.00437375 0.0482865)
(-0.0180327 -0.00356266 0.0522299)
(-0.0282815 -0.00198548 0.0496633)
(-0.0397877 -0.000274298 0.041988)
(-0.0514941 0.00103379 0.0278249)
(-0.0596508 0.00136533 0.00584145)
(-0.0575921 0.000415907 -0.0212711)
(-0.0391391 -0.000757737 -0.0413806)
(-0.0120683 3.67092e-05 -0.0315364)
(-0.00588154 -0.00955048 0.0493355)
(-0.0247993 -0.0123842 0.0875671)
(-0.0510911 -0.00986184 0.094944)
(-0.0766522 -0.00477343 0.0855717)
(-0.100506 0.000926334 0.0628801)
(-0.120081 0.00554554 0.0258561)
(-0.129257 0.00741097 -0.0250452)
(-0.117917 0.00524368 -0.0803174)
(-0.0778649 0.000996707 -0.111056)
(-0.0231653 0.00010859 -0.0696119)
(-0.0089037 -0.0116863 0.0551818)
(-0.037562 -0.0157374 0.100344)
(-0.0762417 -0.0121007 0.107327)
(-0.110984 -0.00469787 0.0917482)
(-0.139639 0.0036368 0.0583642)
(-0.159313 0.0103698 0.00752736)
(-0.164252 0.0131056 -0.058153)
(-0.144863 0.0101112 -0.125062)
(-0.0940981 0.00371032 -0.155985)
(-0.0275621 0.00020322 -0.091287)
(-0.0108841 -0.00894488 0.0564262)
(-0.045969 -0.0122408 0.103158)
(-0.092296 -0.00912297 0.108496)
(-0.131496 -0.00285423 0.088497)
(-0.160908 0.00412046 0.0490649)
(-0.178202 0.00960082 -0.00812054)
(-0.178992 0.0115169 -0.0792746)
(-0.155045 0.00876253 -0.149606)
(-0.10017 0.00343384 -0.178874)
(-0.0292396 0.000225268 -0.101954)
(-0.0118379 -0.00329552 0.0564904)
(-0.0500289 -0.00453283 0.103285)
(-0.0998688 -0.00331708 0.107462)
(-0.140675 -0.000898284 0.0852708)
(-0.169678 0.00176746 0.0433351)
(-0.185195 0.00381957 -0.0159605)
(-0.183848 0.00444767 -0.088479)
(-0.158191 0.00333316 -0.15947)
(-0.102216 0.00132533 -0.187814)
(-0.0298584 9.84601e-05 -0.106099)
(-0.0118379 0.00329554 0.0564904)
(-0.0500289 0.00453285 0.103285)
(-0.0998688 0.00331709 0.107462)
(-0.140675 0.000898296 0.0852708)
(-0.169678 -0.00176745 0.0433351)
(-0.185195 -0.00381956 -0.0159605)
(-0.183848 -0.00444766 -0.088479)
(-0.158191 -0.00333316 -0.15947)
(-0.102216 -0.00132532 -0.187814)
(-0.0298584 -9.8457e-05 -0.106099)
(-0.0108841 0.0089449 0.0564262)
(-0.045969 0.0122408 0.103158)
(-0.092296 0.00912298 0.108496)
(-0.131496 0.00285424 0.088497)
(-0.160909 -0.00412046 0.0490649)
(-0.178202 -0.00960082 -0.00812055)
(-0.178992 -0.0115169 -0.0792746)
(-0.155045 -0.00876252 -0.149606)
(-0.10017 -0.00343384 -0.178874)
(-0.0292396 -0.000225265 -0.101954)
(-0.0089037 0.0116863 0.0551818)
(-0.037562 0.0157374 0.100344)
(-0.0762417 0.0121007 0.107327)
(-0.110984 0.00469788 0.0917482)
(-0.139639 -0.00363679 0.0583642)
(-0.159313 -0.0103698 0.00752735)
(-0.164252 -0.0131056 -0.058153)
(-0.144863 -0.0101112 -0.125062)
(-0.0940981 -0.00371032 -0.155985)
(-0.0275621 -0.000203217 -0.091287)
(-0.00588155 0.00955049 0.0493354)
(-0.0247993 0.0123842 0.0875671)
(-0.0510911 0.00986185 0.094944)
(-0.0766522 0.00477344 0.0855717)
(-0.100506 -0.000926329 0.0628801)
(-0.120081 -0.00554554 0.025856)
(-0.129257 -0.00741097 -0.0250452)
(-0.117917 -0.00524367 -0.0803174)
(-0.0778649 -0.000996706 -0.111056)
(-0.0231653 -0.000108588 -0.0696119)
(-0.00199984 0.00352613 0.029593)
(-0.00856825 0.00437375 0.0482865)
(-0.0180327 0.00356266 0.0522299)
(-0.0282816 0.00198548 0.0496633)
(-0.0397877 0.0002743 0.041988)
(-0.0514941 -0.00103378 0.0278249)
(-0.0596508 -0.00136533 0.00584144)
(-0.0575921 -0.000415905 -0.0212711)
(-0.0391391 0.000757738 -0.0413806)
(-0.0120683 -3.67086e-05 -0.0315364)
(-0.0033206 -0.00395441 0.04242)
(-0.0107397 -0.00451751 0.0650604)
(-0.0190839 -0.00283841 0.0675767)
(-0.0282207 4.30795e-05 0.0624594)
(-0.0405213 0.00336634 0.0519129)
(-0.0564505 0.00631702 0.0336624)
(-0.0722947 0.00773224 0.00427329)
(-0.0783583 0.00624307 -0.0358201)
(-0.0626334 0.00249495 -0.0715107)
(-0.0228755 -0.00032181 -0.0638915)
(-0.00783149 -0.0104442 0.0698374)
(-0.028216 -0.0124988 0.117979)
(-0.0533372 -0.00752428 0.124408)
(-0.0771326 0.00124744 0.110691)
(-0.101443 0.0112697 0.0819885)
(-0.125905 0.0199123 0.0358277)
(-0.144656 0.023794 -0.030724)
(-0.144202 0.0193817 -0.111415)
(-0.110446 0.00818943 -0.171405)
(-0.0388522 -0.000800703 -0.130686)
(-0.01087 -0.0124718 0.0783184)
(-0.0410207 -0.0155237 0.135938)
(-0.0782752 -0.00873282 0.142488)
(-0.110224 0.00329126 0.12226)
(-0.137681 0.0166193 0.0823486)
(-0.160325 0.0273016 0.0215984)
(-0.173405 0.0309405 -0.0615029)
(-0.165109 0.0241897 -0.157929)
(-0.124337 0.0100849 -0.224774)
(-0.0436156 -0.000481792 -0.163344)
(-0.0127328 -0.00938728 0.0806577)
(-0.0490758 -0.0118693 0.140764)
(-0.093409 -0.00628713 0.145882)
(-0.128616 0.00348334 0.121462)
(-0.155174 0.0139866 0.0761535)
(-0.1738 0.0218157 0.00998104)
(-0.181865 0.0236337 -0.0782345)
(-0.169733 0.0176394 -0.179426)
(-0.128017 0.00707256 -0.248248)
(-0.0453855 -0.000186871 -0.177783)
(-0.0135909 -0.00342806 0.0811722)
(-0.0528227 -0.00435439 0.141628)
(-0.10023 -0.00222679 0.145657)
(-0.136293 0.00146073 0.119268)
(-0.161554 0.00534723 0.0720254)
(-0.177612 0.00810671 0.00449967)
(-0.183351 0.00857005 -0.0846881)
(-0.170272 0.00622157 -0.187128)
(-0.129137 0.0024365 -0.256732)
(-0.0461394 -3.42132e-05 -0.183166)
(-0.0135909 0.00342808 0.0811722)
(-0.0528227 0.0043544 0.141628)
(-0.10023 0.0022268 0.145657)
(-0.136293 -0.00146072 0.119268)
(-0.161554 -0.00534722 0.0720254)
(-0.177612 -0.00810671 0.00449967)
(-0.183351 -0.00857005 -0.0846881)
(-0.170272 -0.00622157 -0.187128)
(-0.129137 -0.0024365 -0.256732)
(-0.0461394 3.42152e-05 -0.183166)
(-0.0127328 0.0093873 0.0806576)
(-0.0490758 0.0118693 0.140764)
(-0.093409 0.00628714 0.145882)
(-0.128616 -0.00348333 0.121462)
(-0.155174 -0.0139866 0.0761535)
(-0.1738 -0.0218157 0.00998104)
(-0.181865 -0.0236336 -0.0782345)
(-0.169733 -0.0176394 -0.179426)
(-0.128017 -0.00707255 -0.248248)
(-0.0453855 0.000186873 -0.177783)
(-0.01087 0.0124718 0.0783184)
(-0.0410207 0.0155237 0.135938)
(-0.0782752 0.00873282 0.142488)
(-0.110225 -0.00329125 0.12226)
(-0.137681 -0.0166193 0.0823486)
(-0.160325 -0.0273016 0.0215984)
(-0.173405 -0.0309405 -0.0615029)
(-0.165109 -0.0241897 -0.157929)
(-0.124337 -0.0100849 -0.224774)
(-0.0436157 0.000481794 -0.163344)
(-0.00783149 0.0104442 0.0698374)
(-0.028216 0.0124988 0.117979)
(-0.0533372 0.00752429 0.124408)
(-0.0771326 -0.00124743 0.110691)
(-0.101443 -0.0112697 0.0819885)
(-0.125905 -0.0199123 0.0358277)
(-0.144656 -0.023794 -0.030724)
(-0.144202 -0.0193817 -0.111415)
(-0.110446 -0.00818942 -0.171405)
(-0.0388522 0.000800705 -0.130686)
(-0.0033206 0.00395441 0.04242)
(-0.0107397 0.00451751 0.0650604)
(-0.0190839 0.00283841 0.0675767)
(-0.0282207 -4.30775e-05 0.0624594)
(-0.0405213 -0.00336633 0.0519129)
(-0.0564505 -0.00631702 0.0336624)
(-0.0722947 -0.00773224 0.00427329)
(-0.0783583 -0.00624307 -0.0358201)
(-0.0626334 -0.00249495 -0.0715107)
(-0.0228755 0.00032181 -0.0638915)
(-0.00705913 -0.00459431 0.0594119)
(-0.0162171 -0.00470773 0.0809752)
(-0.0201297 -0.00188848 0.078543)
(-0.0241802 0.00260814 0.0689354)
(-0.0334106 0.0079118 0.0552118)
(-0.0507623 0.0130893 0.0339262)
(-0.0743727 0.0163173 -0.00101936)
(-0.0924336 0.0146361 -0.0542857)
(-0.0876963 0.00728598 -0.110671)
(-0.0362091 -0.00137207 -0.117393)
(-0.0126369 -0.0114996 0.0947457)
(-0.0342958 -0.0124028 0.146758)
(-0.0521248 -0.00457989 0.148025)
(-0.0661698 0.00808031 0.128681)
(-0.0822344 0.0225763 0.095726)
(-0.103608 0.0356973 0.0451682)
(-0.127671 0.0423987 -0.0303905)
(-0.140451 0.0359588 -0.133998)
(-0.127095 0.0159302 -0.233041)
(-0.0500192 -0.00437029 -0.221064)
(-0.0153538 -0.0131277 0.10499)
(-0.0453674 -0.014932 0.169111)
(-0.0733693 -0.00498083 0.171746)
(-0.0927816 0.0111522 0.147151)
(-0.108491 0.0287176 0.104542)
(-0.124106 0.0428911 0.0410211)
(-0.139132 0.0476821 -0.050042)
(-0.143046 0.0372913 -0.171549)
(-0.128441 0.0144788 -0.285534)
(-0.0509348 -0.00423496 -0.263197)
(-0.0167819 -0.00962331 0.107768)
(-0.0517547 -0.0111789 0.175381)
(-0.0852717 -0.00336819 0.177456)
(-0.106169 0.00915794 0.149935)
(-0.119132 0.0222391 0.103583)
(-0.128924 0.031816 0.0362556)
(-0.137767 0.0336036 -0.0587784)
(-0.138171 0.0246389 -0.185921)
(-0.126373 0.00867809 -0.305805)
(-0.0513971 -0.0026722 -0.280242)
(-0.0173822 -0.00346922 0.108422)
(-0.054554 -0.00405736 0.176708)
(-0.0902784 -0.00114766 0.17808)
(-0.111179 0.00347359 0.149248)
(-0.122114 0.00818062 0.101826)
(-0.128838 0.0114255 0.0339393)
(-0.135277 0.011725 -0.0616766)
(-0.135281 0.00829139 -0.190621)
(-0.125768 0.00277317 -0.312937)
(-0.05192 -0.000867109 -0.286537)
(-0.0173822 0.00346923 0.108422)
(-0.054554 0.00405737 0.176708)
(-0.0902784 0.00114767 0.17808)
(-0.111179 -0.00347358 0.149248)
(-0.122114 -0.00818062 0.101826)
(-0.128838 -0.0114255 0.0339393)
(-0.135277 -0.011725 -0.0616766)
(-0.135281 -0.00829138 -0.190621)
(-0.125768 -0.00277317 -0.312937)
(-0.05192 0.000867111 -0.286537)
(-0.0167819 0.00962332 0.107768)
(-0.0517547 0.0111789 0.175381)
(-0.0852717 0.00336819 0.177456)
(-0.106169 -0.00915794 0.149935)
(-0.119132 -0.0222391 0.103583)
(-0.128924 -0.031816 0.0362555)
(-0.137767 -0.0336036 -0.0587784)
(-0.138171 -0.0246389 -0.185921)
(-0.126373 -0.00867809 -0.305805)
(-0.0513971 0.0026722 -0.280242)
(-0.0153538 0.0131277 0.10499)
(-0.0453674 0.014932 0.169111)
(-0.0733693 0.00498084 0.171746)
(-0.0927816 -0.0111522 0.147151)
(-0.108491 -0.0287176 0.104542)
(-0.124106 -0.0428911 0.0410211)
(-0.139132 -0.0476821 -0.050042)
(-0.143046 -0.0372913 -0.171549)
(-0.128441 -0.0144788 -0.285534)
(-0.0509348 0.00423496 -0.263197)
(-0.0126369 0.0114996 0.0947457)
(-0.0342958 0.0124028 0.146758)
(-0.0521248 0.00457989 0.148025)
(-0.0661698 -0.00808031 0.128681)
(-0.0822344 -0.0225763 0.095726)
(-0.103608 -0.0356973 0.0451682)
(-0.127671 -0.0423987 -0.0303905)
(-0.140451 -0.0359588 -0.133998)
(-0.127095 -0.0159302 -0.233041)
(-0.0500192 0.00437029 -0.221064)
(-0.00705913 0.00459432 0.0594119)
(-0.0162171 0.00470773 0.0809752)
(-0.0201297 0.00188848 0.078543)
(-0.0241802 -0.00260814 0.0689354)
(-0.0334106 -0.0079118 0.0552118)
(-0.0507623 -0.0130893 0.0339262)
(-0.0743727 -0.0163173 -0.00101937)
(-0.0924336 -0.0146361 -0.0542857)
(-0.0876963 -0.00728598 -0.110671)
(-0.0362091 0.00137207 -0.117393)
(-0.0165016 -0.00628035 0.0818972)
(-0.0281568 -0.00638625 0.0926216)
(-0.017827 -0.00256564 0.0808278)
(-0.00852795 0.00341463 0.0645735)
(-0.00707205 0.0104039 0.0477001)
(-0.0186885 0.0176806 0.0255864)
(-0.0455348 0.0232664 -0.0111003)
(-0.0762234 0.0218695 -0.0737882)
(-0.0964874 0.0102514 -0.153098)
(-0.0418402 -0.00611342 -0.196084)
(-0.0255184 -0.0143998 0.122731)
(-0.0495345 -0.0151131 0.167312)
(-0.0447356 -0.0054499 0.158339)
(-0.0335519 0.00964075 0.131226)
(-0.0259934 0.0267838 0.0962582)
(-0.0286283 0.0431887 0.0485952)
(-0.0461666 0.0537658 -0.0236306)
(-0.0678821 0.0474363 -0.137058)
(-0.0948363 0.0189234 -0.274813)
(-0.03584 -0.0144581 -0.326838)
(-0.0283218 -0.0152206 0.132694)
(-0.0590268 -0.0169302 0.192285)
(-0.0609524 -0.00565434 0.186741)
(-0.0505476 0.0118184 0.156381)
(-0.0379006 0.0307421 0.114435)
(-0.0295692 0.0467949 0.0569914)
(-0.0334424 0.0541901 -0.0270506)
(-0.0432163 0.0433927 -0.156898)
(-0.0744578 0.01378 -0.315287)
(-0.027455 -0.0125931 -0.368179)
(-0.0293333 -0.010626 0.134941)
(-0.0633827 -0.012114 0.199108)
(-0.0687578 -0.00369458 0.194471)
(-0.0581362 0.00911398 0.162944)
(-0.0418166 0.0224173 0.119022)
(-0.0268399 0.032691 0.0591728)
(-0.0237989 0.0359349 -0.0277596)
(-0.0294818 0.0268096 -0.163025)
(-0.0660462 0.0073927 -0.329432)
(-0.0256776 -0.00745131 -0.383446)
(-0.0296508 -0.00373916 0.135367)
(-0.0649967 -0.00429994 0.200498)
(-0.0715558 -0.00123518 0.19579)
(-0.0604073 0.00336522 0.163791)
(-0.0421574 0.0080165 0.119521)
(-0.0243467 0.0114102 0.0594846)
(-0.0190787 0.0121903 -0.0279145)
(-0.0244383 0.00876195 -0.165091)
(-0.064179 0.00225946 -0.334587)
(-0.0258773 -0.0023455 -0.389087)
(-0.0296508 0.00373917 0.135367)
(-0.0649967 0.00429994 0.200498)
(-0.0715558 0.00123518 0.19579)
(-0.0604073 -0.00336522 0.163791)
(-0.0421574 -0.00801649 0.119521)
(-0.0243467 -0.0114102 0.0594846)
(-0.0190787 -0.0121903 -0.0279145)
(-0.0244383 -0.00876194 -0.165091)
(-0.064179 -0.00225945 -0.334587)
(-0.0258773 0.0023455 -0.389087)
(-0.0293333 0.010626 0.134941)
(-0.0633827 0.012114 0.199108)
(-0.0687578 0.00369458 0.194471)
(-0.0581362 -0.00911398 0.162944)
(-0.0418166 -0.0224173 0.119022)
(-0.0268399 -0.032691 0.0591728)
(-0.0237989 -0.0359349 -0.0277596)
(-0.0294818 -0.0268096 -0.163025)
(-0.0660462 -0.00739269 -0.329432)
(-0.0256776 0.00745131 -0.383446)
(-0.0283218 0.0152206 0.132694)
(-0.0590268 0.0169302 0.192285)
(-0.0609524 0.00565435 0.186741)
(-0.0505476 -0.0118184 0.156381)
(-0.0379006 -0.0307421 0.114435)
(-0.0295692 -0.0467949 0.0569914)
(-0.0334424 -0.0541901 -0.0270506)
(-0.0432163 -0.0433927 -0.156898)
(-0.0744578 -0.01378 -0.315287)
(-0.027455 0.0125931 -0.368179)
(-0.0255184 0.0143998 0.122731)
(-0.0495345 0.0151132 0.167312)
(-0.0447356 0.0054499 0.158339)
(-0.0335519 -0.00964075 0.131226)
(-0.0259934 -0.0267838 0.0962582)
(-0.0286283 -0.0431887 0.0485952)
(-0.0461666 -0.0537658 -0.0236306)
(-0.0678821 -0.0474363 -0.137058)
(-0.0948363 -0.0189234 -0.274813)
(-0.03584 0.0144581 -0.326838)
(-0.0165016 0.00628036 0.0818972)
(-0.0281568 0.00638625 0.0926216)
(-0.017827 0.00256564 0.0808278)
(-0.00852796 -0.00341463 0.0645735)
(-0.00707205 -0.0104039 0.0477001)
(-0.0186885 -0.0176806 0.0255864)
(-0.0455348 -0.0232664 -0.0111003)
(-0.0762234 -0.0218695 -0.0737882)
(-0.0964874 -0.0102514 -0.153098)
(-0.0418402 0.00611342 -0.196084)
(-0.0238363 -0.0112248 0.150191)
(-0.0202418 -0.0120991 0.0981623)
(0.0282092 -0.00747845 0.0628846)
(0.0625134 -0.000896334 0.0415017)
(0.0832612 0.00651995 0.0250291)
(0.0854255 0.014405 0.00717506)
(0.0631023 0.0216197 -0.0214231)
(0.0255531 0.0208135 -0.0789535)
(-0.0421231 0.00507889 -0.174148)
(-0.00680758 -0.0179228 -0.259804)
(-0.0424961 -0.0230261 0.209701)
(-0.0415047 -0.0261797 0.169843)
(0.0234701 -0.0167717 0.128234)
(0.079379 -0.00249617 0.0960316)
(0.124068 0.0138184 0.0663058)
(0.151955 0.0303394 0.0324207)
(0.150107 0.0445778 -0.0170664)
(0.130974 0.0425949 -0.107495)
(0.0401125 0.00995428 -0.256473)
(0.0437391 -0.0320376 -0.369634)
(-0.0477757 -0.0209489 0.219938)
(-0.0510743 -0.0259704 0.19039)
(0.012991 -0.0171758 0.151847)
(0.0735645 -0.00281023 0.118366)
(0.127203 0.0135459 0.0848114)
(0.169048 0.0289687 0.0450407)
(0.181407 0.0401432 -0.0114364)
(0.17665 0.035404 -0.110564)
(0.0809463 0.00568822 -0.275291)
(0.0632018 -0.0227857 -0.395245)
(-0.0488037 -0.0134216 0.220968)
(-0.0538745 -0.0172647 0.194557)
(0.00893311 -0.011301 0.157581)
(0.0707259 -0.00158796 0.12435)
(0.127424 0.00917036 0.0901856)
(0.174481 0.0188265 0.0489649)
(0.191711 0.0249012 -0.00972646)
(0.191063 0.0208118 -0.111767)
(0.0910307 0.00329088 -0.281931)
(0.0662712 -0.0119632 -0.403927)
(-0.048855 -0.00453184 0.220772)
(-0.0543197 -0.00591174 0.194898)
(0.0082117 -0.00381787 0.158254)
(0.0705704 -0.000454643 0.125155)
(0.128323 0.00319093 0.0910565)
(0.176952 0.00636373 0.0497346)
(0.195294 0.00820234 -0.00951203)
(0.194873 0.00669513 -0.112679)
(0.0921845 0.00110191 -0.284698)
(0.0659039 -0.00355957 -0.407092)
(-0.048855 0.00453185 0.220772)
(-0.0543197 0.00591174 0.194898)
(0.0082117 0.00381788 0.158254)
(0.0705704 0.000454647 0.125155)