/*--------------------------------*- C++ -*----------------------------------*\
  =========                 |
  \\      /  F ield         | OpenFOAM: The Open Source CFD Toolbox
   \\    /   O peration     | Website:  https://openfoam.org
    \\  /    A nd           | Version:  9
     \\/     M anipulation  |
\*---------------------------------------------------------------------------*/
FoamFile
{
    format      ascii;
    class       volScalarField;
    location    "0.73";
    object      p;
}
// * * * * * * * * * * * * * * * * * * * * * * * * * * * * * * * * * * * * * //

dimensions      [0 2 -2 0 0 0 0];

internalField   nonuniform List<scalar> 
1000
(
-5.93755e-07
-0.00048603
-0.000168002
0.000901662
0.00279484
0.00538358
0.00820826
0.010508
0.0115802
0.0107265
0.000171284
-0.000726046
-0.000515835
0.000598661
0.00267269
0.00555948
0.00872513
0.0112433
0.0122588
0.0108571
0.000946129
-0.000225145
-5.34044e-05
0.00116138
0.00348305
0.00673804
0.0102842
0.0129481
0.0137173
0.0115759
0.00178286
0.000429472
0.000587804
0.00190306
0.00445127
0.00804317
0.0118553
0.0145752
0.0150854
0.0123534
0.00230813
0.000868841
0.00102626
0.00240119
0.00507412
0.00883871
0.0127966
0.0155277
0.0158819
0.0128369
0.0023082
0.00086889
0.0010263
0.00240122
0.00507413
0.00883872
0.0127966
0.0155277
0.0158819
0.0128369
0.00178306
0.000429637
0.000587932
0.00190315
0.0044513
0.00804318
0.0118553
0.0145752
0.0150854
0.0123534
0.000946533
-0.000224828
-5.31827e-05
0.00116151
0.00348309
0.00673805
0.0102842
0.0129481
0.0137173
0.0115758
0.000172044
-0.000725534
-0.000515523
0.000598828
0.00267275
0.00555949
0.00872513
0.0112432
0.0122588
0.010857
9.43393e-07
-0.000485283
-0.000167606
0.00090186
0.00279491
0.0053836
0.00820825
0.010508
0.0115802
0.0107265
0.000404614
-2.69211e-05
0.000311064
0.00125259
0.0028975
0.00519614
0.00778449
0.00999622
0.011089
0.00995178
0.000942622
2.52635e-05
0.000280919
0.00121298
0.00289297
0.00528525
0.0080173
0.0103549
0.0114083
0.00961662
0.00215324
0.000829699
0.00101673
0.00194479
0.0036929
0.00623092
0.00919853
0.0116145
0.012463
0.00992148
0.00330098
0.00166731
0.00179262
0.00271941
0.00454164
0.00724877
0.0103854
0.0128312
0.0134724
0.0103817
0.00398387
0.00218513
0.00227562
0.00320175
0.00506612
0.0078742
0.0110973
0.0135453
0.0140635
0.0107007
0.00398392
0.00218517
0.00227566
0.00320177
0.00506613
0.00787421
0.0110973
0.0135453
0.0140635
0.0107007
0.00330115
0.00166745
0.00179272
0.00271948
0.00454167
0.00724878
0.0103854
0.0128312
0.0134725
0.0103817
0.00215356
0.000829955
0.00101691
0.00194489
0.00369293
0.00623093
0.00919854
0.0116145
0.012463
0.00992148
0.000943139
2.56511e-05
0.000281172
0.00121311
0.00289302
0.00528526
0.0080173
0.0103549
0.0114083
0.00961662
0.000405382
-2.64133e-05
0.000311372
0.00125274
0.00289755
0.00519616
0.00778449
0.00999622
0.0110889
0.00995176
-0.000938859
-0.00150448
-0.00128646
-0.000547174
0.000920132
0.00324007
0.00619387
0.00909807
0.010861
0.00955488
-7.96488e-05
-0.00129797
-0.00116569
-0.000430953
0.00107532
0.00351487
0.0066665
0.00974322
0.0114335
0.00898173
0.0016493
-0.000154664
-0.000151212
0.000488993
0.00196963
0.00451313
0.00787946
0.0110863
0.012578
0.00908066
0.00322175
0.000971055
0.000849481
0.00139677
0.00286001
0.0055058
0.00900704
0.0122622
0.0135522
0.00935508
0.00413582
0.00164742
0.00145234
0.00194509
0.0033996
0.00609362
0.00965803
0.0129179
0.0140891
0.0095671
0.00413586
0.00164745
0.00145238
0.00194511
0.00339962
0.00609363
0.00965805
0.0129179
0.0140891
0.00956711
0.00322188
0.000971154
0.000849573
0.00139684
0.00286005
0.00550583
0.00900707
0.0122622
0.0135523
0.00935511
0.00164952
-0.000154492
-0.000151073
0.00048908
0.00196967
0.00451316
0.0078795
0.0110863
0.0125781
0.00908069
-7.93455e-05
-0.00129773
-0.00116551
-0.000430847
0.00107536
0.00351491
0.00666653
0.00974325
0.0114335
0.00898175
-0.000938478
-0.00150418
-0.00128626
-0.000547071
0.000920174
0.00324009
0.00619389
0.00909809
0.0108611
0.00955489
-0.00442259
-0.00511554
-0.00507211
-0.00461137
-0.0033451
-0.000840823
0.00296486
0.00745216
0.0109128
0.0100184
-0.00324175
-0.00473872
-0.00478383
-0.00430982
-0.00297141
-0.000289916
0.00381798
0.00863879
0.012031
0.00940263
-0.000984591
-0.00324707
-0.00352787
-0.00330358
-0.00215743
0.000536841
0.00479519
0.00987816
0.013202
0.00940064
0.00102776
-0.00181661
-0.0023275
-0.00234962
-0.00139514
0.0012264
0.00560766
0.0108117
0.0140321
0.0095348
0.00218284
-0.000969823
-0.00161594
-0.00178136
-0.000932295
0.00164986
0.00604742
0.0112837
0.0144394
0.00964957
0.00218287
-0.000969795
-0.00161591
-0.00178133
-0.000932278
0.00164987
0.00604744
0.0112837
0.0144394
0.00964958
0.00102785
-0.00181653
-0.00232742
-0.00234956
-0.0013951
0.00122643
0.00560769
0.0108117
0.0140321
0.00953482
-0.000984452
-0.00324695
-0.00352776
-0.00330351
-0.00215739
0.000536877
0.00479523
0.00987819
0.0132021
0.00940068
-0.00324157
-0.00473855
-0.00478369
-0.00430973
-0.00297135
-0.000289874
0.00381802
0.00863884
0.0120311
0.00940267
-0.00442238
-0.00511534
-0.00507196
-0.00461128
-0.00334506
-0.000840789
0.00296489
0.0074522
0.0109128
0.0100185
-0.0107303
-0.0113797
-0.0114351
-0.0112688
-0.0102679
-0.00750308
-0.00234681
0.00489641
0.0117114
0.0129114
-0.00926954
-0.0108498
-0.0110148
-0.0108538
-0.00978728
-0.00690106
-0.00144153
0.00635732
0.0133426
0.0126844
-0.00659511
-0.00910644
-0.00968416
-0.0100444
-0.00951376
-0.00695128
-0.00150403
0.00673349
0.0140371
0.0126919
-0.0042537
-0.00746508
-0.00843037
-0.00927354
-0.00920877
-0.00693117
-0.00157669
0.00687761
0.0143678
0.012745
-0.00292621
-0.00650512
-0.00769278
-0.00880482
-0.00899121
-0.00689791
-0.00160045
0.00691754
0.0144752
0.012776
-0.00292619
-0.0065051
-0.00769275
-0.0088048
-0.00899119
-0.0068979
-0.00160044
0.00691755
0.0144752
0.012776
-0.00425364
-0.00746502
-0.00843031
-0.00927349
-0.00920874
-0.00693115
-0.00157667
0.00687764
0.0143678
0.0127451
-0.00659501
-0.00910635
-0.00968408
-0.0100443
-0.00951372
-0.00695125
-0.001504
0.00673353
0.0140371
0.012692
-0.00926942
-0.0108496
-0.0110147
-0.0108537
-0.00978722
-0.00690102
-0.00144149
0.00635737
0.0133427
0.0126845
-0.0107301
-0.0113795
-0.0114349
-0.0112688
-0.0102678
-0.00750303
-0.00234676
0.00489647
0.0117115
0.0129115
-0.0204896
-0.020559
-0.0203472
-0.020323
-0.0195685
-0.0165709
-0.00967817
0.00164608
0.0144709
0.0211262
-0.0187799
-0.0199293
-0.0199124
-0.0200219
-0.0194658
-0.0167427
-0.0100252
0.00182413
0.0153012
0.0214823
-0.0158235
-0.0180528
-0.0187028
-0.0197431
-0.020246
-0.018477
-0.0122606
0.000109534
0.0146711
0.0214989
-0.0132984
-0.0163133
-0.0175458
-0.0193707
-0.0207098
-0.0196629
-0.0138159
-0.00119586
0.0140088
0.0214165
-0.0118898
-0.0153096
-0.0168636
-0.0191005
-0.0208535
-0.0201266
-0.0145082
-0.00182686
0.0136419
0.0213413
-0.0118898
-0.0153095
-0.0168635
-0.0191005
-0.0208535
-0.0201265
-0.0145081
-0.00182686
0.0136419
0.0213413
-0.0132983
-0.0163133
-0.0175457
-0.0193706
-0.0207098
-0.0196628
-0.0138159
-0.00119584
0.0140088
0.0214165
-0.0158234
-0.0180527
-0.0187028
-0.0197431
-0.020246
-0.0184769
-0.0122606
0.000109574
0.0146712
0.0214989
-0.0187798
-0.0199293
-0.0199123
-0.0200218
-0.0194657
-0.0167427
-0.0100251
0.00182418
0.0153012
0.0214823
-0.0204895
-0.0205589
-0.0203471
-0.020323
-0.0195685
-0.0165709
-0.00967811
0.00164614
0.0144709
0.0211263
-0.0347839
-0.0325396
-0.0310674
-0.0306406
-0.0299854
-0.0268459
-0.0183014
-0.00170606
0.0202216
0.0389434
-0.0326276
-0.0317613
-0.0307219
-0.030799
-0.0309035
-0.0289118
-0.0216256
-0.00521087
0.017887
0.0390561
-0.0293707
-0.0296875
-0.0296191
-0.0311236
-0.0329628
-0.0327885
-0.0268328
-0.0101101
0.0148194
0.0388982
-0.0267185
-0.0278421
-0.0285329
-0.0311109
-0.0341583
-0.0351428
-0.0299702
-0.0130668
0.0129065
0.0387599
-0.025279
-0.0268064
-0.0278977
-0.0310022
-0.0346019
-0.0360895
-0.0312629
-0.0143154
0.0120769
0.0386781
-0.0252789
-0.0268064
-0.0278977
-0.0310022
-0.0346019
-0.0360895
-0.0312629
-0.0143154
0.0120769
0.0386781
-0.0267184
-0.0278421
-0.0285328
-0.0311109
-0.0341583
-0.0351428
-0.0299702
-0.0130668
0.0129065
0.0387599
-0.0293707
-0.0296875
-0.029619
-0.0311235
-0.0329627
-0.0327885
-0.0268327
-0.0101101
0.0148194
0.0388982
-0.0326276
-0.0317612
-0.0307219
-0.030799
-0.0309034
-0.0289118
-0.0216255
-0.00521083
0.017887
0.0390561
-0.0347839
-0.0325396
-0.0310673
-0.0306406
-0.0299853
-0.0268458
-0.0183013
-0.00170601
0.0202216
0.0389434
-0.057431
-0.0468955
-0.0421017
-0.0400104
-0.0388931
-0.0353986
-0.0255568
-0.00304549
0.0303423
0.0732389
-0.0541498
-0.0454273
-0.041503
-0.0406937
-0.0411612
-0.0399101
-0.0330092
-0.0120418
0.0225796
0.0736985
-0.0499813
-0.0425019
-0.0397631
-0.0409441
-0.0438
-0.0449951
-0.0401821
-0.0191223
0.0178591
0.075135
-0.04689
-0.04017
-0.0382565
-0.0407266
-0.0450766
-0.047651
-0.043901
-0.0225306
0.0158743
0.0764883
-0.0453065
-0.0389497
-0.0374542
-0.0405155
-0.0454956
-0.0486133
-0.045301
-0.0237775
0.0152403
0.0771431
-0.0453065
-0.0389497
-0.0374542
-0.0405155
-0.0454956
-0.0486133
-0.045301
-0.0237775
0.0152403
0.0771431
-0.04689
-0.04017
-0.0382565
-0.0407266
-0.0450766
-0.047651
-0.043901
-0.0225306
0.0158743
0.0764883
-0.0499813
-0.0425019
-0.0397631
-0.040944
-0.0438
-0.044995
-0.0401821
-0.0191222
0.0178591
0.075135
-0.0541498
-0.0454273
-0.041503
-0.0406937
-0.0411611
-0.03991
-0.0330092
-0.0120417
0.0225797
0.0736985
-0.057431
-0.0468956
-0.0421018
-0.0400104
-0.038893
-0.0353985
-0.0255567
-0.00304545
0.0303423
0.0732389
-0.0889613
-0.0611498
-0.0518766
-0.0462365
-0.0434962
-0.0389334
-0.0262839
0.00471602
0.0516657
0.150881
-0.0812866
-0.0571963
-0.0504593
-0.0472404
-0.0468718
-0.0450488
-0.0361263
-0.00607501
0.0452902
0.162518
-0.0748761
-0.0523785
-0.0472026
-0.046511
-0.0490766
-0.0499137
-0.0430647
-0.0113846
0.046327
0.17157
-0.0708807
-0.0490852
-0.0448005
-0.045634
-0.0499043
-0.052212
-0.0461847
-0.0132085
0.0476276
0.177271
-0.0690356
-0.0475083
-0.0436425
-0.0451514
-0.0501298
-0.0530225
-0.0472819
-0.0137833
0.0483434
0.179748
-0.0690356
-0.0475083
-0.0436425
-0.0451514
-0.0501298
-0.0530225
-0.0472819
-0.0137833
0.0483434
0.179748
-0.0708807
-0.0490852
-0.0448005
-0.045634
-0.0499043
-0.052212
-0.0461847
-0.0132085
0.0476277
0.177271
-0.0748761
-0.0523785
-0.0472026
-0.046511
-0.0490765
-0.0499137
-0.0430647
-0.0113846
0.046327
0.17157
-0.0812866
-0.0571963
-0.0504593
-0.0472403
-0.0468717
-0.0450488
-0.0361263
-0.00607496
0.0452902
0.162518
-0.0889613
-0.0611498
-0.0518766
-0.0462364
-0.0434961
-0.0389333
-0.0262839
0.00471605
0.0516657
0.150881
-0.199225
-0.0738339
-0.0488114
-0.0403294
-0.0360282
-0.0292768
-0.0123837
0.0328223
0.119037
0.324657
-0.186928
-0.0611108
-0.0410049
-0.0369414
-0.0363032
-0.0328836
-0.0183927
0.0296411
0.129533
0.359285
-0.178027
-0.0521856
-0.0343464
-0.0333674
-0.0359255
-0.0348917
-0.0213892
0.0297382
0.138843
0.380142
-0.172886
-0.0471301
-0.0303105
-0.0310542
-0.035449
-0.0357338
-0.022557
0.0302112
0.143457
0.390164
-0.170627
-0.0449535
-0.0285586
-0.0300299
-0.0352003
-0.0360477
-0.0230041
0.0304169
0.145215
0.393982
-0.170627
-0.0449535
-0.0285586
-0.0300298
-0.0352003
-0.0360477
-0.0230041
0.0304169
0.145215
0.393982
-0.172886
-0.0471301
-0.0303105
-0.0310541
-0.035449
-0.0357338
-0.022557
0.0302112
0.143457
0.390164
-0.178027
-0.0521856
-0.0343464
-0.0333674
-0.0359254
-0.0348916
-0.0213892
0.0297382
0.138844
0.380142
-0.186928
-0.0611108
-0.0410048
-0.0369413
-0.0363031
-0.0328835
-0.0183927
0.0296412
0.129533
0.359285
-0.199224
-0.0738338
-0.0488114
-0.0403293
-0.0360281
-0.0292767
-0.0123836
0.0328224
0.119037
0.324658
)
;

boundaryField
{
    top
    {
        type            zeroGradient;
    }
    others
    {
        type            zeroGradient;
    }
}


// ************************************************************************* //
