/*--------------------------------*- C++ -*----------------------------------*\
  =========                 |
  \\      /  F ield         | OpenFOAM: The Open Source CFD Toolbox
   \\    /   O peration     | Website:  https://openfoam.org
    \\  /    A nd           | Version:  9
     \\/     M anipulation  |
\*---------------------------------------------------------------------------*/
FoamFile
{
    format      ascii;
    class       surfaceScalarField;
    location    "0.73";
    object      phi;
}
// * * * * * * * * * * * * * * * * * * * * * * * * * * * * * * * * * * * * * //

dimensions      [0 3 -1 0 0 0 0];

internalField   nonuniform List<scalar> 
2700
(
-5.80973e-08
-1.07711e-07
1.65824e-07
-3.01781e-07
-1.208e-07
3.64484e-07
-6.26107e-07
-1.2145e-07
4.45777e-07
-9.46421e-07
-1.42818e-07
4.63132e-07
-1.17339e-06
-1.95572e-07
4.22538e-07
-1.20771e-06
-2.74007e-07
3.08328e-07
-9.82526e-07
-3.50193e-07
1.2501e-07
-5.40976e-07
-3.73967e-07
-6.75818e-08
-1.03266e-07
-2.98611e-07
-1.39099e-07
-9.88306e-08
-4.43585e-09
-1.57556e-07
-2.34613e-07
2.84459e-07
-6.86205e-07
-3.12238e-07
7.20086e-07
-1.35683e-06
-3.33676e-07
8.82855e-07
-1.98671e-06
-3.74707e-07
8.61762e-07
-2.40259e-06
-4.58234e-07
6.78546e-07
-2.42767e-06
-5.72621e-07
3.23692e-07
-1.95261e-06
-6.70342e-07
-1.54913e-07
-1.07995e-06
-6.77362e-07
-5.69257e-07
-2.33991e-07
-5.36078e-07
-6.08497e-07
-2.17147e-07
-1.15675e-07
-2.36511e-07
-2.56404e-07
2.58302e-07
-9.60566e-07
-3.65266e-07
7.77084e-07
-1.85468e-06
-3.98629e-07
9.5907e-07
-2.67036e-06
-4.40856e-07
8.81822e-07
-3.18012e-06
-5.1762e-07
5.69154e-07
-3.16328e-06
-6.18322e-07
2.88568e-08
-2.4905e-06
-6.90546e-07
-6.52572e-07
-1.3249e-06
-6.77528e-07
-1.16544e-06
-2.49845e-07
-5.34702e-07
-1.07643e-06
-2.35353e-07
-2.31639e-07
-2.90823e-07
-1.62684e-07
1.97103e-07
-1.14464e-06
-2.38602e-07
7.27154e-07
-2.18315e-06
-2.62548e-07
9.02432e-07
-3.11256e-06
-2.88307e-07
7.76861e-07
-3.67015e-06
-3.3193e-07
3.719e-07
-3.59776e-06
-3.86343e-07
-3.04376e-07
-2.7778e-06
-4.23098e-07
-1.0874e-06
-1.41889e-06
-4.09033e-07
-1.62741e-06
-2.21502e-07
-3.2272e-07
-1.40937e-06
-1.47736e-07
-3.09119e-07
-3.19036e-07
3.88253e-13
1.56352e-07
-1.2382e-06
3.90183e-13
6.80562e-07
-2.34816e-06
3.00072e-13
8.4741e-07
-3.33135e-06
1.51895e-13
6.94882e-07
-3.9064e-06
1.48791e-13
2.4312e-07
-3.80109e-06
1.27031e-13
-4.91646e-07
-2.90101e-06
8.67841e-14
-1.32318e-06
-1.44625e-06
7.51064e-14
-1.86379e-06
-1.97267e-07
8.74631e-14
-1.57171e-06
4.75331e-14
-3.45003e-07
-3.19036e-07
1.62685e-07
1.56352e-07
-1.2382e-06
2.38603e-07
6.80562e-07
-2.34816e-06
2.62548e-07
8.4741e-07
-3.33135e-06
2.88307e-07
6.94882e-07
-3.9064e-06
3.3193e-07
2.4312e-07
-3.80109e-06
3.86344e-07
-4.91646e-07
-2.90101e-06
4.23098e-07
-1.32318e-06
-1.44625e-06
4.09034e-07
-1.86379e-06
-1.97267e-07
3.2272e-07
-1.57171e-06
1.47736e-07
-3.45003e-07
-2.90823e-07
2.56406e-07
1.97102e-07
-1.14464e-06
3.65267e-07
7.27154e-07
-2.18315e-06
3.9863e-07
9.02432e-07
-3.11256e-06
4.40856e-07
7.76861e-07
-3.67015e-06
5.17621e-07
3.719e-07
-3.59776e-06
6.18322e-07
-3.04376e-07
-2.7778e-06
6.90546e-07
-1.0874e-06
-1.41889e-06
6.77528e-07
-1.62741e-06
-2.21502e-07
5.34702e-07
-1.40937e-06
2.35353e-07
-3.0912e-07
-2.36512e-07
2.34617e-07
2.58301e-07
-9.60567e-07
3.12239e-07
7.77083e-07
-1.85468e-06
3.33676e-07
9.5907e-07
-2.67036e-06
3.74708e-07
8.81822e-07
-3.18012e-06
4.58234e-07
5.69153e-07
-3.16328e-06
5.72621e-07
2.88567e-08
-2.4905e-06
6.70342e-07
-6.52572e-07
-1.3249e-06
6.77362e-07
-1.16544e-06
-2.49845e-07
5.36078e-07
-1.07643e-06
2.17147e-07
-2.31639e-07
-1.57558e-07
1.07718e-07
2.84457e-07
-6.86206e-07
1.20801e-07
7.20086e-07
-1.35683e-06
1.21451e-07
8.82855e-07
-1.98671e-06
1.42819e-07
8.61762e-07
-2.40259e-06
1.95572e-07
6.78545e-07
-2.42767e-06
2.74007e-07
3.23692e-07
-1.95261e-06
3.50193e-07
-1.54913e-07
-1.07995e-06
3.73968e-07
-5.69257e-07
-2.33991e-07
2.98611e-07
-6.08497e-07
9.88307e-08
-1.15675e-07
-5.81006e-08
1.65819e-07
-3.01783e-07
3.64483e-07
-6.26108e-07
4.45777e-07
-9.46421e-07
4.63132e-07
-1.17339e-06
4.22538e-07
-1.20771e-06
3.08328e-07
-9.82526e-07
1.2501e-07
-5.40976e-07
-6.75819e-08
-1.03266e-07
-1.39099e-07
-4.43593e-09
-2.18291e-07
-2.81867e-07
6.65982e-07
-7.18728e-07
-3.77096e-07
1.24202e-06
-1.32319e-06
-3.92559e-07
1.4428e-06
-1.90026e-06
-4.00303e-07
1.4405e-06
-2.30416e-06
-4.30842e-07
1.25728e-06
-2.3728e-06
-4.86646e-07
8.63617e-07
-1.99011e-06
-5.39946e-07
2.82269e-07
-1.19762e-06
-5.32211e-07
-3.27864e-07
-3.3132e-07
-3.95353e-07
-6.10045e-07
-8.59317e-08
-2.49825e-07
-5.99546e-07
-5.15627e-07
1.11777e-06
-1.81894e-06
-7.49262e-07
2.31165e-06
-3.21955e-06
-7.94665e-07
2.68557e-06
-4.47176e-06
-8.08934e-07
2.5226e-06
-5.26234e-06
-8.52955e-07
1.89124e-06
-5.29302e-06
-9.27852e-07
7.95574e-07
-4.38162e-06
-9.90669e-07
-6.15586e-07
-2.66113e-06
-9.4772e-07
-1.87424e-06
-8.20843e-07
-7.15825e-07
-2.12831e-06
-2.34337e-07
-7.88113e-07
-8.93277e-07
-5.25475e-07
1.16143e-06
-2.63591e-06
-7.969e-07
2.56735e-06
-4.57433e-06
-8.53374e-07
2.95621e-06
-6.23416e-06
-8.66248e-07
2.59896e-06
-7.19804e-06
-9.01064e-07
1.58114e-06
-7.11942e-06
-9.59462e-07
-1.8151e-08
-5.78702e-06
-9.90801e-07
-1.98484e-06
-3.44798e-06
-9.29144e-07
-3.52306e-06
-1.0361e-06
-7.09735e-07
-3.4944e-06
-2.73321e-07
-1.22876e-06
-1.0888e-06
-3.23276e-07
1.0837e-06
-3.17995e-06
-5.00407e-07
2.52181e-06
-5.46004e-06
-5.38119e-07
2.86727e-06
-7.35418e-06
-5.44575e-07
2.34933e-06
-8.38685e-06
-5.6081e-07
1.06431e-06
-8.18038e-06
-5.8809e-07
-8.82222e-07
-6.54863e-06
-5.95904e-07
-3.11405e-06
-3.82263e-06
-5.52571e-07
-4.72998e-06
-1.10092e-06
-4.25399e-07
-4.41542e-06
-1.76394e-07
-1.50696e-06
-1.18627e-06
3.95997e-13
1.01935e-06
-3.45185e-06
4.44734e-13
2.44573e-06
-5.89794e-06
3.41373e-13
2.75538e-06
-7.89725e-06
2.08467e-13
2.14962e-06
-8.94883e-06
1.96009e-13
7.33888e-07
-8.66206e-06
1.69332e-13
-1.3665e-06
-6.87523e-06
1.28527e-13
-3.70591e-06
-3.96551e-06
1.14721e-13
-5.32609e-06
-1.11186e-06
1.05272e-13
-4.85076e-06
5.06388e-14
-1.63325e-06
-1.18627e-06
3.23276e-07
1.01935e-06
-3.45185e-06
5.00408e-07
2.44573e-06
-5.89794e-06
5.3812e-07
2.75538e-06
-7.89725e-06
5.44575e-07
2.14962e-06
-8.94883e-06
5.6081e-07
7.33888e-07
-8.66206e-06
5.8809e-07
-1.3665e-06
-6.87523e-06
5.95904e-07
-3.70591e-06
-3.96551e-06
5.52571e-07
-5.32609e-06
-1.11186e-06
4.25399e-07
-4.85076e-06
1.76394e-07
-1.63325e-06
-1.0888e-06
5.25476e-07
1.0837e-06
-3.17995e-06
7.96901e-07
2.52181e-06
-5.46004e-06
8.53374e-07
2.86727e-06
-7.35418e-06
8.66249e-07
2.34933e-06
-8.38685e-06
9.01064e-07
1.06431e-06
-8.18038e-06
9.59463e-07
-8.82222e-07
-6.54863e-06
9.90801e-07
-3.11405e-06
-3.82263e-06
9.29144e-07
-4.72998e-06
-1.10092e-06
7.09735e-07
-4.41542e-06
2.73321e-07
-1.50696e-06
-8.93278e-07
5.15628e-07
1.16143e-06
-2.63591e-06
7.49263e-07
2.56735e-06
-4.57433e-06
7.94665e-07
2.95621e-06
-6.23416e-06
8.08934e-07
2.59896e-06
-7.19804e-06
8.52955e-07
1.58114e-06
-7.11942e-06
9.27852e-07
-1.81513e-08
-5.78702e-06
9.90669e-07
-1.98484e-06
-3.44798e-06
9.4772e-07
-3.52306e-06
-1.0361e-06
7.15825e-07
-3.4944e-06
2.34337e-07
-1.22876e-06
-5.99547e-07
2.81869e-07
1.11776e-06
-1.81894e-06
3.77096e-07
2.31165e-06
-3.21955e-06
3.92559e-07
2.68557e-06
-4.47176e-06
4.00303e-07
2.5226e-06
-5.26234e-06
4.30842e-07
1.89124e-06
-5.29302e-06
4.86646e-07
7.95574e-07
-4.38162e-06
5.39946e-07
-6.15586e-07
-2.66113e-06
5.32211e-07
-1.87424e-06
-8.20843e-07
3.95353e-07
-2.12831e-06
8.59319e-08
-7.88113e-07
-2.18292e-07
6.6598e-07
-7.18729e-07
1.24202e-06
-1.32319e-06
1.4428e-06
-1.90026e-06
1.4405e-06
-2.30416e-06
1.25728e-06
-2.3728e-06
8.63617e-07
-1.99011e-06
2.82269e-07
-1.19762e-06
-3.27864e-07
-3.3132e-07
-6.10045e-07
-2.49825e-07
-3.31145e-07
-4.30046e-07
1.42717e-06
-1.00183e-06
-5.78142e-07
2.49085e-06
-1.78606e-06
-5.79668e-07
2.80669e-06
-2.55128e-06
-5.36532e-07
2.74225e-06
-3.14329e-06
-5.03208e-07
2.3525e-06
-3.35735e-06
-5.03874e-07
1.58156e-06
-2.98977e-06
-5.26913e-07
4.41601e-07
-1.97878e-06
-5.23074e-07
-8.15782e-07
-6.72925e-07
-3.94421e-07
-1.52148e-06
-4.02399e-08
-8.8251e-07
-9.54911e-07
-7.49204e-07
2.39183e-06
-2.69564e-06
-1.07985e-06
4.55408e-06
-4.62032e-06
-1.08896e-06
5.11955e-06
-6.3427e-06
-9.967e-07
4.70515e-06
-7.50777e-06
-9.08691e-07
3.4618e-06
-7.74033e-06
-8.64029e-07
1.38829e-06
-6.71786e-06
-8.49582e-07
-1.31538e-06
-4.41911e-06
-8.0805e-07
-3.88802e-06
-1.58489e-06
-6.24277e-07
-4.73268e-06
-1.55318e-07
-2.25792e-06
-1.44953e-06
-7.41286e-07
2.60304e-06
-3.99697e-06
-1.10778e-06
5.14271e-06
-6.70767e-06
-1.1191e-06
5.69704e-06
-8.99847e-06
-1.01257e-06
4.90563e-06
-1.03967e-05
-8.99247e-07
2.96988e-06
-1.04748e-05
-8.17529e-07
1.34915e-08
-8.90371e-06
-7.60204e-07
-3.64531e-06
-5.75187e-06
-7.022e-07
-6.78075e-06
-2.02712e-06
-5.57695e-07
-7.28573e-06
-1.90634e-07
-3.22056e-06
-1.78221e-06
-4.48328e-07
2.57296e-06
-4.86652e-06
-6.81824e-07
5.18017e-06
-8.06615e-06
-6.88471e-07
5.63627e-06
-1.0661e-05
-6.17157e-07
4.54875e-06
-1.21202e-05
-5.37029e-07
2.16126e-06
-1.20097e-05
-4.71134e-07
-1.33905e-06
-1.00502e-05
-4.22381e-07
-5.41135e-06
-6.39069e-06
-3.84154e-07
-8.70758e-06
-2.20074e-06
-3.12551e-07
-8.85051e-06
-1.23585e-07
-3.77475e-06
-1.94771e-06
2.80901e-13
2.51873e-06
-5.298e-06
3.7085e-13
5.1142e-06
-8.72891e-06
2.75532e-13
5.49782e-06
-1.14501e-05
1.61537e-13
4.25366e-06
-1.29073e-05
1.56298e-13
1.65406e-06
-1.26796e-05
1.26297e-13
-2.06539e-06
-1.05237e-05
1.00346e-13
-6.28418e-06
-6.63567e-06
7.91991e-14
-9.59825e-06
-2.25539e-06
5.544e-14
-9.54359e-06
1.42546e-14
-4.01223e-06
-1.94771e-06
4.48328e-07
2.51873e-06
-5.298e-06
6.81825e-07
5.1142e-06
-8.72891e-06
6.88472e-07
5.49782e-06
-1.14501e-05
6.17158e-07
4.25366e-06
-1.29073e-05
5.3703e-07
1.65406e-06
-1.26796e-05
4.71134e-07
-2.06539e-06
-1.05237e-05
4.22381e-07
-6.28418e-06
-6.63567e-06
3.84154e-07
-9.59825e-06
-2.25539e-06
3.12551e-07
-9.54359e-06
1.23585e-07
-4.01223e-06
-1.78221e-06
7.41286e-07
2.57296e-06
-4.86652e-06
1.10778e-06
5.18017e-06
-8.06615e-06
1.1191e-06
5.63627e-06
-1.0661e-05
1.01257e-06
4.54875e-06
-1.21202e-05
8.99247e-07
2.16126e-06
-1.20097e-05
8.17529e-07
-1.33905e-06
-1.00502e-05
7.60204e-07
-5.41135e-06
-6.39069e-06
7.022e-07
-8.70758e-06
-2.20074e-06
5.57695e-07
-8.85051e-06
1.90634e-07
-3.77475e-06
-1.44953e-06
7.49204e-07
2.60304e-06
-3.99697e-06
1.07985e-06
5.14271e-06
-6.70767e-06
1.08896e-06
5.69704e-06
-8.99847e-06
9.967e-07
4.90563e-06
-1.03967e-05
9.08692e-07
2.96988e-06
-1.04748e-05
8.64029e-07
1.34913e-08
-8.90371e-06
8.49583e-07
-3.64531e-06
-5.75187e-06
8.0805e-07
-6.78075e-06
-2.02712e-06
6.24277e-07
-7.28573e-06
1.55318e-07
-3.22056e-06
-9.54911e-07
4.30046e-07
2.39183e-06
-2.69564e-06
5.78143e-07
4.55408e-06
-4.62032e-06
5.79669e-07
5.11955e-06
-6.3427e-06
5.36532e-07
4.70515e-06
-7.50777e-06
5.03208e-07
3.4618e-06
-7.74033e-06
5.03874e-07
1.38829e-06
-6.71786e-06
5.26914e-07
-1.31538e-06
-4.41911e-06
5.23074e-07
-3.88802e-06
-1.58489e-06
3.94421e-07
-4.73268e-06
4.024e-08
-2.25792e-06
-3.31145e-07
1.42717e-06
-1.00184e-06
2.49085e-06
-1.78606e-06
2.80669e-06
-2.55128e-06
2.74225e-06
-3.14329e-06
2.3525e-06
-3.35736e-06
1.58156e-06
-2.98977e-06
4.41601e-07
-1.97878e-06
-8.15782e-07
-6.72925e-07
-1.52148e-06
-8.8251e-07
-4.13768e-07
-5.59318e-07
2.40026e-06
-1.19783e-06
-7.29913e-07
4.00483e-06
-2.10779e-06
-6.76908e-07
4.39356e-06
-3.05166e-06
-5.31637e-07
4.21776e-06
-3.90592e-06
-3.80086e-07
3.58684e-06
-4.43289e-06
-2.81272e-07
2.3898e-06
-4.29028e-06
-2.60615e-07
5.59597e-07
-3.17985e-06
-3.11169e-07
-1.61504e-06
-1.30948e-06
-2.96721e-07
-3.09513e-06
5.17829e-10
-2.19251e-06
-1.23214e-06
-9.49566e-07
4.01422e-06
-3.36317e-06
-1.31936e-06
7.27456e-06
-5.68502e-06
-1.21316e-06
7.97765e-06
-7.83521e-06
-9.10231e-07
7.23393e-06
-9.48942e-06
-5.74746e-07
5.31066e-06
-1.02162e-05
-3.17765e-07
2.15154e-06
-9.47306e-06
-2.01369e-07
-2.11775e-06
-6.84727e-06
-2.52865e-07
-6.57211e-06
-2.84401e-06
-3.0623e-07
-8.72643e-06
-4.90149e-08
-5.05241e-06
-1.88835e-06
-9.22162e-07
4.46399e-06
-5.04917e-06
-1.32154e-06
8.30572e-06
-8.33927e-06
-1.20311e-06
8.97709e-06
-1.1167e-05
-8.65018e-07
7.68819e-06
-1.31014e-05
-4.80022e-07
4.80953e-06
-1.36572e-05
-1.61748e-07
4.13237e-07
-1.23269e-05
-5.25031e-09
-5.17166e-06
-8.72778e-06
-5.45039e-08
-1.05783e-05
-3.57173e-06
-1.70814e-07
-1.25772e-05
-6.63316e-08
-6.77497e-06
-2.32835e-06
-5.50998e-07
4.53014e-06
-6.16497e-06
-8.01107e-07
8.49635e-06
-1.00326e-05
-7.23162e-07
9.02393e-06
-1.31798e-05
-5.03584e-07
7.33454e-06
-1.51323e-05
-2.51381e-07
3.88517e-06
-1.54576e-05
-3.9184e-08
-1.13634e-06
-1.36988e-05
6.42094e-08
-7.23965e-06
-9.56658e-06
3.12059e-08
-1.29255e-05
-3.86559e-06
-6.1055e-08
-1.46613e-05
-4.19404e-08
-7.66474e-06
-2.54497e-06
1.75299e-13
4.5127e-06
-6.70996e-06
2.30481e-13
8.47808e-06
-1.08387e-05
1.35814e-13
8.90338e-06
-1.40997e-05
5.9524e-14
7.01109e-06
-1.60116e-05
7.69276e-14
3.31453e-06
-1.61849e-05
9.14348e-14
-1.93128e-06
-1.42214e-05
8.47908e-14
-8.18346e-06
-9.87104e-06
6.85655e-14
-1.39174e-05
-3.96636e-06
3.88143e-14
-1.55093e-05
1.58845e-14
-8.02053e-06
-2.54497e-06
5.50998e-07
4.5127e-06
-6.70996e-06
8.01108e-07
8.47808e-06
-1.08387e-05
7.23163e-07
8.90338e-06
-1.40997e-05
5.03584e-07
7.01109e-06
-1.60116e-05
2.51381e-07
3.31453e-06
-1.61849e-05
3.91842e-08
-1.93128e-06
-1.42214e-05
-6.42092e-08
-8.18346e-06
-9.87104e-06
-3.12057e-08
-1.39174e-05
-3.96636e-06
6.10551e-08
-1.55093e-05
4.19405e-08
-8.02053e-06
-2.32835e-06
9.22162e-07
4.53014e-06
-6.16497e-06
1.32154e-06
8.49635e-06
-1.00326e-05
1.20311e-06
9.02393e-06
-1.31798e-05
8.65018e-07
7.33454e-06
-1.51323e-05
4.80023e-07
3.88517e-06
-1.54576e-05
1.61749e-07
-1.13634e-06
-1.36988e-05
5.25056e-09
-7.23965e-06
-9.56658e-06
5.4504e-08
-1.29255e-05
-3.86559e-06
1.70814e-07
-1.46613e-05
6.63317e-08
-7.66474e-06
-1.88835e-06
9.49567e-07
4.46399e-06
-5.04917e-06
1.31936e-06
8.30572e-06
-8.33927e-06
1.21316e-06
8.97709e-06
-1.1167e-05
9.10231e-07
7.68819e-06
-1.31014e-05
5.74746e-07
4.80953e-06
-1.36572e-05
3.17765e-07
4.13236e-07
-1.23269e-05
2.01369e-07
-5.17166e-06
-8.72778e-06
2.52866e-07
-1.05783e-05
-3.57173e-06
3.06231e-07
-1.25772e-05
4.9015e-08
-6.77497e-06
-1.23214e-06
5.59318e-07
4.01422e-06
-3.36317e-06
7.29914e-07
7.27456e-06
-5.68502e-06
6.76908e-07
7.97765e-06
-7.83521e-06
5.31638e-07
7.23393e-06
-9.48942e-06
3.80087e-07
5.31066e-06
-1.02162e-05
2.81272e-07
2.15154e-06
-9.47306e-06
2.60615e-07
-2.11775e-06
-6.84727e-06
3.11169e-07
-6.57211e-06
-2.84401e-06
2.96721e-07
-8.72643e-06
-5.17875e-10
-5.05241e-06
-4.13768e-07
2.40026e-06
-1.19783e-06
4.00483e-06
-2.10779e-06
4.39356e-06
-3.05166e-06
4.21776e-06
-3.90592e-06
3.58684e-06
-4.4329e-06
2.3898e-06
-4.29028e-06
5.59597e-07
-3.17985e-06
-1.61504e-06
-1.30948e-06
-3.09513e-06
-2.19251e-06
-5.04831e-07
-6.58723e-07
3.56381e-06
-1.34476e-06
-8.15971e-07
5.66073e-06
-2.29939e-06
-6.56702e-07
6.00489e-06
-3.3758e-06
-3.4133e-07
5.6355e-06
-4.5427e-06
2.23693e-08
4.73137e-06
-5.56539e-06
3.01609e-07
3.11088e-06
-5.93465e-06
4.02633e-07
5.26222e-07
-4.96733e-06
2.48118e-07
-2.83047e-06
-2.4617e-06
4.91616e-09
-5.60568e-06
1.00732e-08
-4.66428e-06
-1.4675e-06
-1.0949e-06
5.9179e-06
-3.8346e-06
-1.4393e-06
1.0265e-05
-6.36495e-06
-1.12674e-06
1.0978e-05
-8.82102e-06
-4.91906e-07
9.84058e-06
-1.09958e-05
2.25572e-07
7.28225e-06
-1.24712e-05
8.07426e-07
3.12112e-06
-1.24667e-05
1.04634e-06
-2.76598e-06
-9.99463e-06
7.87242e-07
-9.58328e-06
-4.8516e-06
2.46439e-07
-1.4111e-05
1.30795e-08
-9.90701e-06
-2.22089e-06
-1.04606e-06
6.63603e-06
-5.74658e-06
-1.41323e-06
1.18053e-05
-9.32843e-06
-1.07616e-06
1.25084e-05
-1.248e-05
-3.92541e-07
1.07404e-05
-1.49074e-05
3.73191e-07
7.08932e-06
-1.61764e-05
9.86057e-07
1.50364e-06
-1.55855e-05
1.22615e-06
-5.94236e-06
-1.21846e-05
9.44595e-07
-1.41366e-05
-5.84269e-06
3.60457e-07
-1.90331e-05
1.9741e-08
-1.26243e-05
-2.71444e-06
-6.1814e-07
6.81666e-06
-6.97791e-06
-8.45066e-07
1.21917e-05
-1.1146e-05
-6.2992e-07
1.27458e-05
-1.45588e-05
-1.97126e-07
1.0552e-05
-1.69141e-05
2.83184e-07
6.33046e-06
-1.78545e-05
6.62534e-07
1.27508e-07
-1.68455e-05
7.92719e-07
-7.81519e-06
-1.30122e-05
6.05029e-07
-1.64192e-05
-6.21328e-06
2.40966e-07
-2.13407e-05
1.57037e-08
-1.3874e-05
-2.95184e-06
8.69597e-14
6.8464e-06
-7.56264e-06
1.1738e-13
1.22438e-05
-1.19776e-05
4.99381e-14
1.26884e-05
-1.54528e-05
4.15408e-14
1.02892e-05
-1.77005e-05
9.0096e-14
5.84543e-06
-1.84485e-05
1.09881e-13
-5.20729e-07
-1.7251e-05
1.0548e-13
-8.58822e-06
-1.32772e-05
1.01878e-13
-1.72862e-05
-6.34133e-06
5.31529e-14
-2.22042e-05
4.25298e-14
-1.43462e-05
-2.95184e-06
6.1814e-07
6.8464e-06
-7.56264e-06
8.45066e-07
1.22438e-05
-1.19776e-05
6.2992e-07
1.26884e-05
-1.54528e-05
1.97126e-07
1.02892e-05
-1.77005e-05
-2.83184e-07
5.84543e-06
-1.84485e-05
-6.62534e-07
-5.20729e-07
-1.7251e-05
-7.92718e-07
-8.58822e-06
-1.32772e-05
-6.05028e-07
-1.72862e-05
-6.34133e-06
-2.40966e-07
-2.22042e-05
-1.57036e-08
-1.43462e-05
-2.71444e-06
1.04606e-06
6.81666e-06
-6.97791e-06
1.41323e-06
1.21917e-05
-1.1146e-05
1.07616e-06
1.27458e-05
-1.45588e-05
3.92541e-07
1.0552e-05
-1.69141e-05
-3.73191e-07
6.33046e-06
-1.78545e-05
-9.86056e-07
1.27507e-07
-1.68455e-05
-1.22615e-06
-7.81519e-06
-1.30122e-05
-9.44595e-07
-1.64192e-05
-6.21328e-06
-3.60457e-07
-2.13407e-05
-1.97409e-08
-1.3874e-05
-2.22089e-06
1.0949e-06
6.63603e-06
-5.74658e-06
1.4393e-06
1.18053e-05
-9.32843e-06
1.12674e-06
1.25084e-05
-1.248e-05
4.91906e-07
1.07404e-05
-1.49074e-05
-2.25572e-07
7.08932e-06
-1.61764e-05
-8.07426e-07
1.50364e-06
-1.55855e-05
-1.04634e-06
-5.94236e-06
-1.21846e-05
-7.87242e-07
-1.41366e-05
-5.84269e-06
-2.46439e-07
-1.90331e-05
-1.30794e-08
-1.26243e-05
-1.4675e-06
6.58723e-07
5.9179e-06
-3.8346e-06
8.15971e-07
1.0265e-05
-6.36495e-06
6.56702e-07
1.0978e-05
-8.82102e-06
3.41331e-07
9.84058e-06
-1.09958e-05
-2.23692e-08
7.28225e-06
-1.24712e-05
-3.01609e-07
3.12112e-06
-1.24667e-05
-4.02633e-07
-2.76598e-06
-9.99463e-06
-2.48118e-07
-9.58328e-06
-4.8516e-06
-4.91619e-09
-1.4111e-05
-1.00733e-08
-9.90701e-06
-5.04831e-07
3.56381e-06
-1.34476e-06
5.66073e-06
-2.29939e-06
6.00489e-06
-3.3758e-06
5.6355e-06
-4.5427e-06
4.73137e-06
-5.56539e-06
3.11088e-06
-5.93465e-06
5.26222e-07
-4.96734e-06
-2.83047e-06
-2.4617e-06
-5.60568e-06
-4.66428e-06
-6.9518e-07
-7.31231e-07
4.99022e-06
-1.51029e-06
-8.31868e-07
7.3077e-06
-2.34251e-06
-5.0948e-07
7.34659e-06
-3.39573e-06
5.51127e-08
6.63361e-06
-4.79885e-06
7.01515e-07
5.43298e-06
-6.41782e-06
1.26919e-06
3.46067e-06
-7.61979e-06
1.53058e-06
1.97615e-07
-7.2442e-06
1.22984e-06
-4.4359e-06
-4.28756e-06
4.94137e-07
-9.05645e-06
-6.45015e-08
-8.88734e-06
-1.74682e-06
-1.18369e-06
8.11717e-06
-4.12939e-06
-1.4386e-06
1.32543e-05
-6.50038e-06
-8.39261e-07
1.36788e-05
-8.87852e-06
2.2233e-07
1.20515e-05
-1.13019e-05
1.41916e-06
8.98797e-06
-1.34839e-05
2.41307e-06
4.15923e-06
-1.45689e-05
2.80497e-06
-2.95534e-06
-1.3005e-05
2.24069e-06
-1.2158e-05
-7.42142e-06
9.49734e-07
-2.01502e-05
-5.96097e-08
-1.73333e-05
-2.50342e-06
-1.10944e-06
9.0652e-06
-6.03749e-06
-1.38729e-06
1.52881e-05
-9.39403e-06
-7.67944e-07
1.57936e-05
-1.23352e-05
3.23136e-07
1.35808e-05
-1.48234e-05
1.51891e-06
9.47774e-06
-1.66244e-05
2.45328e-06
3.26443e-06
-1.70727e-05
2.73059e-06
-5.4197e-06
-1.47794e-05
2.0999e-06
-1.6289e-05
-8.36124e-06
8.69347e-07
-2.53709e-05
-3.10766e-08
-2.10141e-05
-2.97506e-06
-6.47423e-07
9.3297e-06
-7.20748e-06
-8.18969e-07
1.58558e-05
-1.10616e-05
-4.34804e-07
1.62668e-05
-1.4123e-05
2.35929e-07
1.37006e-05
-1.63659e-05
9.52845e-07
9.13936e-06
-1.77153e-05
1.48094e-06
2.44926e-06
-1.77385e-05
1.60064e-06
-6.66199e-06
-1.52098e-05
1.1906e-06
-1.80386e-05
-8.65226e-06
4.78549e-07
-2.75074e-05
-9.78731e-09
-2.25475e-05
-3.19317e-06
4.4081e-14
9.39215e-06
-7.73968e-06
5.43571e-14
1.59713e-05
-1.17815e-05
9.42071e-15
1.62954e-05
-1.48226e-05
3.05495e-14
1.35662e-05
-1.68775e-05
5.93662e-14
8.85312e-06
-1.7976e-05
8.86095e-14
2.05875e-06
-1.78451e-05
1.15536e-13
-7.11852e-06
-1.52986e-05
9.87748e-14
-1.86421e-05
-8.75794e-06
6.8212e-14
-2.82663e-05
6.33733e-14
-2.31139e-05
-3.19317e-06
6.47423e-07
9.39215e-06
-7.73968e-06
8.18969e-07
1.59713e-05
-1.17815e-05
4.34804e-07
1.62954e-05
-1.48226e-05
-2.35929e-07
1.35662e-05
-1.68775e-05
-9.52845e-07
8.85312e-06
-1.7976e-05
-1.48094e-06
2.05875e-06
-1.78451e-05
-1.60064e-06
-7.11852e-06
-1.52986e-05
-1.1906e-06
-1.86421e-05
-8.75794e-06
-4.78549e-07
-2.82663e-05
9.78738e-09
-2.31139e-05
-2.97506e-06
1.10944e-06
9.3297e-06
-7.20748e-06
1.38729e-06
1.58558e-05
-1.10616e-05
7.67944e-07
1.62668e-05
-1.4123e-05
-3.23136e-07
1.37006e-05
-1.63659e-05
-1.51891e-06
9.13936e-06
-1.77153e-05
-2.45328e-06
2.44926e-06
-1.77385e-05
-2.73059e-06
-6.66199e-06
-1.52098e-05
-2.0999e-06
-1.80386e-05
-8.65226e-06
-8.69347e-07
-2.75074e-05
3.10766e-08
-2.25475e-05
-2.50342e-06
1.18369e-06
9.0652e-06
-6.03749e-06
1.4386e-06
1.52881e-05
-9.39403e-06
8.39261e-07
1.57936e-05
-1.23352e-05
-2.22329e-07
1.35808e-05
-1.48234e-05
-1.41916e-06
9.47774e-06
-1.66244e-05
-2.41307e-06
3.26443e-06
-1.70727e-05
-2.80497e-06
-5.4197e-06
-1.47794e-05
-2.24069e-06
-1.6289e-05
-8.36124e-06
-9.49733e-07
-2.53709e-05
5.96097e-08
-2.10141e-05
-1.74682e-06
7.31231e-07
8.11717e-06
-4.12939e-06
8.31868e-07
1.32543e-05
-6.50038e-06
5.0948e-07
1.36788e-05
-8.87852e-06
-5.51125e-08
1.20515e-05
-1.13019e-05
-7.01515e-07
8.98797e-06
-1.34839e-05
-1.26919e-06
4.15923e-06
-1.45689e-05
-1.53058e-06
-2.95534e-06
-1.3005e-05
-1.22984e-06
-1.2158e-05
-7.42142e-06
-4.94137e-07
-2.01502e-05
6.45014e-08
-1.73333e-05
-6.9518e-07
4.99022e-06
-1.51029e-06
7.3077e-06
-2.34251e-06
7.34659e-06
-3.39573e-06
6.63361e-06
-4.79885e-06
5.43298e-06
-6.41782e-06
3.46067e-06
-7.61979e-06
1.97615e-07
-7.2442e-06
-4.4359e-06
-4.28756e-06
-9.05645e-06
-8.88734e-06
-1.22671e-06
-8.29554e-07
7.04649e-06
-1.83181e-06
-8.40212e-07
8.75301e-06
-2.18544e-06
-3.15174e-07
8.01539e-06
-2.82366e-06
5.29881e-07
6.74196e-06
-4.13042e-06
1.51151e-06
5.22822e-06
-6.17772e-06
2.44432e-06
3.06364e-06
-8.42412e-06
2.9781e-06
-5.34084e-07
-9.23083e-06
2.58858e-06
-6.21776e-06
-6.50727e-06
1.20171e-06
-1.29817e-05
-2.9544e-07
-1.50992e-05
-2.37471e-06
-1.27218e-06
1.09345e-05
-4.37738e-06
-1.40925e-06
1.5826e-05
-5.88739e-06
-5.01902e-07
1.53755e-05
-7.35728e-06
9.69917e-07
1.30814e-05
-9.19108e-06
2.61649e-06
9.71679e-06
-1.14371e-05
4.02193e-06
4.8276e-06
-1.35016e-05
4.61746e-06
-2.53011e-06
-1.36488e-05
3.75991e-06
-1.31822e-05
-9.28567e-06
1.57329e-06
-2.48849e-05
-4.20706e-07
-2.64937e-05
-3.01749e-06
-1.15399e-06
1.19645e-05
-6.01692e-06
-1.32485e-06
1.82031e-05
-8.27589e-06
-4.34472e-07
1.79851e-05
-9.99467e-06
9.9787e-07
1.52716e-05
-1.15137e-05
2.53435e-06
1.1079e-05
-1.30049e-05
3.72498e-06
5.05252e-06
-1.42149e-05
4.05355e-06
-3.64578e-06
-1.3862e-05
3.08842e-06
-1.59704e-05
-9.46388e-06
1.15729e-06
-2.9353e-05
-3.42629e-07
-3.0556e-05
-3.3828e-06
-6.60605e-07
1.22191e-05
-6.94274e-06
-7.69634e-07
1.88605e-05
-9.53381e-06
-2.34363e-07
1.86577e-05
-1.11918e-05
6.18735e-07
1.57377e-05
-1.22805e-05
1.50403e-06
1.12584e-05
-1.31659e-05
2.1419e-06
4.91767e-06
-1.39108e-05
2.2458e-06
-4.10934e-06
-1.35195e-05
1.63123e-06
-1.69727e-05
-9.41997e-06
5.65668e-07
-3.10154e-05
-1.75212e-07
-3.21349e-05
-3.54122e-06
5.66763e-14
1.22728e-05
-7.33661e-06
5.7354e-14
1.89971e-05
-1.00309e-05
2.33377e-14
1.87553e-05
-1.15903e-05
3.38348e-14
1.57444e-05
-1.2425e-05
5.05479e-14
1.11918e-05
-1.30342e-05
1.04941e-13
4.80986e-06
-1.36447e-05
1.33321e-13
-4.2622e-06
-1.33466e-05
1.25263e-13
-1.73089e-05
-9.43161e-06
1.01772e-13
-3.16156e-05
8.31526e-14
-3.27207e-05
-3.54122e-06
6.60605e-07
1.22728e-05
-7.33661e-06
7.69635e-07
1.89971e-05
-1.00309e-05
2.34363e-07
1.87553e-05
-1.15903e-05
-6.18735e-07
1.57444e-05
-1.2425e-05
-1.50403e-06
1.11918e-05
-1.30342e-05
-2.1419e-06
4.80986e-06
-1.36447e-05
-2.2458e-06
-4.2622e-06
-1.33466e-05
-1.63123e-06
-1.73089e-05
-9.43161e-06
-5.65668e-07
-3.16156e-05
1.75212e-07
-3.27207e-05
-3.3828e-06
1.15399e-06
1.22191e-05
-6.94274e-06
1.32485e-06
1.88605e-05
-9.53381e-06
4.34472e-07
1.86577e-05
-1.11918e-05
-9.9787e-07
1.57377e-05
-1.22805e-05
-2.53435e-06
1.12584e-05
-1.31659e-05
-3.72498e-06
4.91767e-06
-1.39108e-05
-4.05355e-06
-4.10934e-06
-1.35195e-05
-3.08842e-06
-1.69727e-05
-9.41997e-06
-1.15729e-06
-3.10154e-05
3.42629e-07
-3.21349e-05
-3.01749e-06
1.27218e-06
1.19645e-05
-6.01692e-06
1.40925e-06
1.82031e-05
-8.27589e-06
5.01903e-07
1.79851e-05
-9.99467e-06
-9.69917e-07
1.52716e-05
-1.15137e-05
-2.61649e-06
1.1079e-05
-1.30049e-05
-4.02193e-06
5.05252e-06
-1.42149e-05
-4.61746e-06
-3.64578e-06
-1.3862e-05
-3.75991e-06
-1.59704e-05
-9.46388e-06
-1.57329e-06
-2.9353e-05
4.20706e-07
-3.0556e-05
-2.37471e-06
8.29554e-07
1.09345e-05
-4.37738e-06
8.40212e-07
1.5826e-05
-5.88739e-06
3.15174e-07
1.53755e-05
-7.35728e-06
-5.2988e-07
1.30814e-05
-9.19108e-06
-1.51151e-06
9.71679e-06
-1.14371e-05
-2.44432e-06
4.8276e-06
-1.35016e-05
-2.9781e-06
-2.53011e-06
-1.36488e-05
-2.58858e-06
-1.31822e-05
-9.28567e-06
-1.20171e-06
-2.48849e-05
2.9544e-07
-2.64937e-05
-1.22671e-06
7.04649e-06
-1.83181e-06
8.75301e-06
-2.18544e-06
8.01539e-06
-2.82366e-06
6.74196e-06
-4.13042e-06
5.22822e-06
-6.17772e-06
3.06364e-06
-8.42412e-06
-5.34084e-07
-9.23083e-06
-6.21776e-06
-6.50727e-06
-1.29817e-05
-1.50992e-05
-2.4726e-06
-1.08388e-06
1.0603e-05
-2.23059e-06
-1.07555e-06
9.58656e-06
-1.28249e-06
-3.88835e-07
7.45613e-06
-7.2941e-07
6.76629e-07
5.51225e-06
-1.21687e-06
1.90796e-06
3.80771e-06
-3.07543e-06
3.1427e-06
1.7795e-06
-6.14498e-06
4.02821e-06
-1.49275e-06
-8.68071e-06
3.68523e-06
-7.36727e-06
-7.66996e-06
1.62376e-06
-1.56162e-05
-1.01233e-06
-2.17568e-05
-4.01846e-06
-1.52966e-06
1.53987e-05
-4.66735e-06
-1.65824e-06
1.70576e-05
-3.86891e-06
-5.89465e-07
1.47777e-05
-2.9081e-06
1.06885e-06
1.17283e-05
-2.64363e-06
2.92645e-06
8.43383e-06
-3.56293e-06
4.59042e-06
4.29918e-06
-5.7265e-06
5.49965e-06
-1.83799e-06
-8.04242e-06
4.60442e-06
-1.17854e-05
-7.44002e-06
1.62744e-06
-2.5491e-05
-1.37913e-06
-3.35669e-05
-4.62906e-06
-1.30548e-06
1.63694e-05
-5.98256e-06
-1.47109e-06
1.93695e-05
-5.51853e-06
-4.84951e-07
1.74166e-05
-4.34259e-06
1.02479e-06
1.41397e-05
-3.27823e-06
2.63422e-06
1.03068e-05
-2.96679e-06
3.94521e-06
5.38629e-06
-3.85929e-06
4.46669e-06
-1.72031e-06
-5.76095e-06
3.46299e-06
-1.29273e-05
-5.99963e-06
1.02611e-06
-2.8513e-05
-1.01749e-06
-3.69173e-05
-4.89186e-06
-7.2048e-07
1.6526e-05
-6.60596e-06
-8.25401e-07
1.99289e-05
-6.28112e-06
-2.525e-07
1.81004e-05
-4.91091e-06
6.12881e-07
1.47794e-05
-3.33766e-06
1.50307e-06
1.08163e-05
-2.3566e-06
2.17881e-06
5.70301e-06
-2.70295e-06
2.3761e-06
-1.6724e-06
-4.64538e-06
1.75122e-06
-1.33185e-05
-5.4929e-06
4.66776e-07
-2.96085e-05
-4.86993e-07
-3.81583e-05
-4.98506e-06
6.615e-14
1.65374e-05
-6.83115e-06
6.1406e-14
2.00178e-05
-6.53098e-06
4.32946e-14
1.82027e-05
-5.03975e-06
3.84807e-14
1.4866e-05
-3.2333e-06
4.61434e-14
1.08884e-05
-2.00513e-06
1.08066e-13
5.76051e-06
-2.22038e-06
1.67759e-13
-1.67086e-06
-4.29957e-06
1.54527e-13
-1.34785e-05
-5.41711e-06
1.17064e-13
-3.00313e-05
6.24893e-14
-3.86248e-05
-4.98506e-06
7.2048e-07
1.65374e-05
-6.83115e-06
8.25402e-07
2.00178e-05
-6.53098e-06
2.525e-07
1.82027e-05
-5.03975e-06
-6.12881e-07
1.4866e-05
-3.2333e-06
-1.50307e-06
1.08884e-05
-2.00513e-06
-2.17881e-06
5.76051e-06
-2.22038e-06
-2.3761e-06
-1.67086e-06
-4.29957e-06
-1.75122e-06
-1.34785e-05
-5.41711e-06
-4.66776e-07
-3.00313e-05
4.86993e-07
-3.86248e-05
-4.89186e-06
1.30548e-06
1.6526e-05
-6.60596e-06
1.47109e-06
1.99289e-05
-6.28112e-06
4.84951e-07
1.81004e-05
-4.91091e-06
-1.02479e-06
1.47794e-05
-3.33766e-06
-2.63422e-06
1.08163e-05
-2.3566e-06
-3.94521e-06
5.70301e-06
-2.70295e-06
-4.46669e-06
-1.6724e-06
-4.64538e-06
-3.46299e-06
-1.33185e-05
-5.4929e-06
-1.02611e-06
-2.96085e-05
1.01749e-06
-3.81583e-05
-4.62906e-06
1.52966e-06
1.63694e-05
-5.98256e-06
1.65825e-06
1.93695e-05
-5.51853e-06
5.89465e-07
1.74166e-05
-4.34259e-06
-1.06885e-06
1.41397e-05
-3.27823e-06
-2.92645e-06
1.03068e-05
-2.96679e-06
-4.59042e-06
5.38629e-06
-3.85929e-06
-5.49965e-06
-1.72031e-06
-5.76095e-06
-4.60442e-06
-1.29273e-05
-5.99963e-06
-1.62744e-06
-2.8513e-05
1.37913e-06
-3.69173e-05
-4.01846e-06
1.08388e-06
1.53987e-05
-4.66735e-06
1.07555e-06
1.70576e-05
-3.86891e-06
3.88835e-07
1.47777e-05
-2.9081e-06
-6.76629e-07
1.17283e-05
-2.64363e-06
-1.90796e-06
8.43383e-06
-3.56293e-06
-3.1427e-06
4.29918e-06
-5.7265e-06
-4.02821e-06
-1.83799e-06
-8.04242e-06
-3.68523e-06
-1.17854e-05
-7.44002e-06
-1.62376e-06
-2.5491e-05
1.01233e-06
-3.35669e-05
-2.4726e-06
1.0603e-05
-2.23059e-06
9.58656e-06
-1.28249e-06
7.45613e-06
-7.2941e-07
5.51225e-06
-1.21687e-06
3.80771e-06
-3.07543e-06
1.7795e-06
-6.14498e-06
-1.49275e-06
-8.68071e-06
-7.36727e-06
-7.66996e-06
-1.56162e-05
-2.17568e-05
-2.66985e-06
-1.8579e-06
1.51307e-05
5.16671e-07
-1.98777e-06
8.38781e-06
4.55493e-06
-1.19818e-06
4.61605e-06
7.4172e-06
-1.43234e-07
2.79321e-06
8.60381e-06
1.0976e-06
1.5235e-06
7.67415e-06
2.38271e-06
3.2645e-07
4.36192e-06
3.55074e-06
-1.73125e-06
-6.13369e-07
3.4512e-06
-5.84318e-06
-3.46939e-06
9.03966e-07
-1.36642e-05
-2.72108e-06
-2.25051e-05
-4.76772e-06
-2.23234e-06
2.05409e-05
-7.67929e-07
-2.67635e-06
1.37464e-05
5.15684e-06
-1.76636e-06
9.42114e-06
1.03054e-05
-2.93562e-07
6.73009e-06
1.39815e-05
1.37455e-06
4.48078e-06
1.55006e-05
3.00961e-06
2.15317e-06
1.40544e-05
4.27194e-06
-1.11295e-06
9.32623e-06
3.83878e-06
-7.44487e-06
3.09659e-06
6.93841e-07
-1.90512e-05
-2.76279e-06
-3.04287e-05
-5.53011e-06
-1.70937e-06
2.13765e-05
-1.72479e-06
-2.16924e-06
1.50571e-05
4.35725e-06
-1.43936e-06
1.10075e-05
1.01863e-05
-2.34582e-07
8.25167e-06
1.5e-05
1.11026e-06
5.75742e-06
1.80007e-05
2.35426e-06
3.041e-06
1.79399e-05
3.19723e-06
-5.84805e-07
1.37226e-05
2.74823e-06
-7.6195e-06
5.71977e-06
4.32896e-07
-2.02493e-05
-1.73074e-06
-3.22296e-05
-5.72487e-06
-8.87963e-07
2.14294e-05
-2.05948e-06
-1.15357e-06
1.52478e-05
4.02365e-06
-7.53879e-07
1.13318e-05
1.00638e-05
-1.06579e-07
8.61131e-06
1.52925e-05
6.05046e-07
6.09283e-06
1.88222e-05
1.23799e-06
3.28955e-06
1.91626e-05
1.62726e-06
-4.42755e-07
1.49631e-05