/*--------------------------------*- C++ -*----------------------------------*\
  =========                 |
  \\      /  F ield         | OpenFOAM: The Open Source CFD Toolbox
   \\    /   O peration     | Website:  https://openfoam.org
    \\  /    A nd           | Version:  9
     \\/     M anipulation  |
\*---------------------------------------------------------------------------*/
FoamFile
{
    format      ascii;
    class       volVectorField;
    location    "0.73";
    object      U;
}
// * * * * * * * * * * * * * * * * * * * * * * * * * * * * * * * * * * * * * //

dimensions      [0 1 -1 0 0 0 0];

internalField   nonuniform List<vector> 
1000
(
(2.42698e-05 -0.000505566 0.000341905)
(-0.00141517 -0.000471045 0.00107454)
(-0.00458947 -0.000428436 0.00142982)
(-0.00797528 -0.000538634 0.00158362)
(-0.0108769 -0.000846209 0.00155007)
(-0.0123379 -0.00131204 0.00123805)
(-0.0114217 -0.00177392 0.000634814)
(-0.00787121 -0.00194244 -3.14861e-05)
(-0.00262931 -0.00154726 -0.00022845)
(0.000108336 -0.000463134 0.000370144)
(-0.000158752 -0.00179214 0.000596535)
(-0.00344874 -0.00221053 0.00229855)
(-0.0101471 -0.00229557 0.00305009)
(-0.0170278 -0.00263322 0.00314617)
(-0.0226051 -0.00339635 0.0026589)
(-0.0251012 -0.0044822 0.00149045)
(-0.0228855 -0.00547241 -0.000222507)
(-0.0156526 -0.00566745 -0.00175045)
(-0.00545369 -0.00448779 -0.00177342)
(-1.27012e-05 -0.00165877 0.000225692)
(-0.000355918 -0.00268531 0.00028963)
(-0.00498829 -0.00377244 0.00235007)
(-0.014035 -0.00409689 0.00324132)
(-0.023103 -0.00455255 0.00319458)
(-0.0301841 -0.00541288 0.00227808)
(-0.0329996 -0.00655764 0.00041919)
(-0.0295459 -0.00744985 -0.00208525)
(-0.0196494 -0.00738782 -0.00400223)
(-0.00629053 -0.00582997 -0.00347062)
(0.000341546 -0.00247705 -5.49028e-05)
(-0.000497965 -0.002277 -0.000121587)
(-0.00603886 -0.00334163 0.0019974)
(-0.0166315 -0.00367565 0.00290863)
(-0.0270845 -0.00404308 0.00273322)
(-0.0350357 -0.00467648 0.00150975)
(-0.0378352 -0.00548024 -0.000808049)
(-0.0333128 -0.00602235 -0.00378093)
(-0.0215638 -0.00584424 -0.00581097)
(-0.00624134 -0.00460837 -0.00471602)
(0.000814847 -0.00207421 -0.000249229)
(-0.000574555 -0.00087966 -0.000377944)
(-0.00657964 -0.00131251 0.00172541)
(-0.0179464 -0.00145014 0.0026284)
(-0.0290729 -0.0015874 0.00238032)
(-0.0374113 -0.00181261 0.000997439)
(-0.0401374 -0.00208891 -0.00155138)
(-0.0350136 -0.00226752 -0.00472038)
(-0.022306 -0.00218065 -0.00675466)
(-0.00604891 -0.00172046 -0.00533107)
(0.00111411 -0.00079395 -0.000337193)
(-0.000574556 0.000879667 -0.000377945)
(-0.00657964 0.00131252 0.00172541)
(-0.0179464 0.00145014 0.0026284)
(-0.0290729 0.0015874 0.00238032)
(-0.0374113 0.00181261 0.000997439)
(-0.0401374 0.00208891 -0.00155138)
(-0.0350136 0.00226753 -0.00472038)
(-0.022306 0.00218065 -0.00675466)
(-0.00604891 0.00172046 -0.00533107)
(0.00111411 0.000793951 -0.000337193)
(-0.000497968 0.00227701 -0.00012159)
(-0.00603887 0.00334164 0.0019974)
(-0.0166315 0.00367566 0.00290863)
(-0.0270845 0.00404308 0.00273322)
(-0.0350357 0.00467649 0.00150975)
(-0.0378352 0.00548025 -0.000808049)
(-0.0333128 0.00602235 -0.00378093)
(-0.0215638 0.00584424 -0.00581097)
(-0.00624134 0.00460838 -0.00471602)
(0.000814846 0.00207421 -0.000249229)
(-0.000355928 0.00268533 0.000289621)
(-0.0049883 0.00377245 0.00235006)
(-0.014035 0.0040969 0.00324132)
(-0.023103 0.00455256 0.00319458)
(-0.0301841 0.00541288 0.00227808)
(-0.0329996 0.00655764 0.000419189)
(-0.0295459 0.00744985 -0.00208526)
(-0.0196494 0.00738782 -0.00400223)
(-0.00629053 0.00582997 -0.00347062)
(0.000341546 0.00247705 -5.49033e-05)
(-0.000158776 0.00179221 0.000596514)
(-0.00344877 0.00221054 0.00229854)
(-0.0101471 0.00229557 0.00305009)
(-0.0170278 0.00263323 0.00314617)
(-0.0226051 0.00339635 0.0026589)
(-0.0251012 0.0044822 0.00149045)
(-0.0228855 0.00547241 -0.000222508)
(-0.0156526 0.00566746 -0.00175045)
(-0.00545369 0.00448779 -0.00177342)
(-1.27014e-05 0.00165877 0.000225692)
(2.42003e-05 0.000505625 0.000341836)
(-0.00141525 0.000471058 0.00107452)
(-0.00458948 0.000428441 0.00142982)
(-0.00797528 0.000538637 0.00158362)
(-0.0108769 0.000846211 0.00155007)
(-0.0123379 0.00131204 0.00123805)
(-0.0114217 0.00177393 0.000634814)
(-0.00787121 0.00194244 -3.14866e-05)
(-0.00262931 0.00154726 -0.00022845)
(0.000108336 0.000463134 0.000370144)
(-0.000629101 -0.00144411 0.0034483)
(-0.00411105 -0.00185715 0.00691641)
(-0.0101559 -0.00189715 0.00827103)
(-0.0163759 -0.00193265 0.00846405)
(-0.0215938 -0.00211302 0.00759665)
(-0.0242475 -0.00245764 0.00543441)
(-0.0227866 -0.00281295 0.00209174)
(-0.0165601 -0.00283018 -0.00137347)
(-0.00680487 -0.00207901 -0.00278949)
(-0.000658876 -0.000314819 -0.000526727)
(-0.00195978 -0.0042713 0.00576029)
(-0.0108271 -0.00600956 0.0131374)
(-0.0251959 -0.00631391 0.0157702)
(-0.0392529 -0.00644024 0.0152004)
(-0.0501522 -0.00687808 0.0117868)
(-0.0547984 -0.00764829 0.00543789)
(-0.0505002 -0.00835065 -0.00291415)
(-0.0364737 -0.00810927 -0.0101583)
(-0.0157567 -0.00605306 -0.0110996)
(-0.0021501 -0.00163609 -0.00292233)
(-0.0030264 -0.00568897 0.00557244)
(-0.0159521 -0.00856537 0.0143179)
(-0.0362197 -0.00916023 0.0172047)
(-0.055331 -0.00931617 0.0156002)
(-0.0693263 -0.00974131 0.00990143)
(-0.0743457 -0.0104477 0.000283757)
(-0.0672909 -0.010923 -0.0113975)
(-0.0476875 -0.0103106 -0.0202991)
(-0.0200909 -0.00783109 -0.0191786)
(-0.00252732 -0.00283997 -0.00517942)
(-0.00373036 -0.00460039 0.00471325)
(-0.0193855 -0.00713751 0.0136639)
(-0.0435369 -0.00768083 0.0163897)
(-0.0657403 -0.00778052 0.0138974)
(-0.081334 -0.00802828 0.00655489)
(-0.0860378 -0.00843558 -0.00517949)
(-0.0767121 -0.00857707 -0.0187397)
(-0.0534225 -0.00797125 -0.0281005)
(-0.0217703 -0.00612187 -0.0248999)
(-0.0023655 -0.00247489 -0.00667803)
(-0.00407754 -0.00174308 0.00410458)
(-0.0211051 -0.00273642 0.0129777)
(-0.0471888 -0.00295045 0.0155354)
(-0.0708534 -0.00297961 0.0125467)
(-0.0870956 -0.00304993 0.00436153)
(-0.0914582 -0.00316821 -0.00837424)
(-0.0808724 -0.00318024 -0.0227054)
(-0.0557624 -0.00293567 -0.0320806)
(-0.0222669 -0.00226917 -0.0276887)
(-0.00217641 -0.000960622 -0.00737556)
(-0.00407754 0.00174309 0.00410458)
(-0.0211051 0.00273643 0.0129777)
(-0.0471888 0.00295046 0.0155354)
(-0.0708534 0.00297962 0.0125467)
(-0.0870956 0.00304993 0.00436153)
(-0.0914582 0.00316821 -0.00837424)
(-0.0808724 0.00318024 -0.0227054)
(-0.0557624 0.00293567 -0.0320806)
(-0.0222669 0.00226917 -0.0276887)
(-0.00217641 0.000960623 -0.00737556)
(-0.00373036 0.0046004 0.00471324)
(-0.0193855 0.00713751 0.0136639)
(-0.0435369 0.00768083 0.0163897)
(-0.0657403 0.00778053 0.0138974)
(-0.081334 0.00802829 0.00655489)
(-0.0860378 0.00843559 -0.00517949)
(-0.0767121 0.00857708 -0.0187397)
(-0.0534225 0.00797125 -0.0281005)
(-0.0217703 0.00612187 -0.0248999)
(-0.0023655 0.0024749 -0.00667803)
(-0.00302641 0.00568898 0.00557242)
(-0.0159521 0.00856538 0.0143179)
(-0.0362197 0.00916024 0.0172047)
(-0.055331 0.00931617 0.0156002)
(-0.0693263 0.00974131 0.00990143)
(-0.0743457 0.0104477 0.000283755)
(-0.0672909 0.010923 -0.0113975)
(-0.0476875 0.0103106 -0.0202991)
(-0.0200909 0.00783109 -0.0191786)
(-0.00252732 0.00283997 -0.00517942)
(-0.00195979 0.00427132 0.00576027)
(-0.0108271 0.00600957 0.0131374)
(-0.0251959 0.00631392 0.0157702)
(-0.0392529 0.00644025 0.0152004)
(-0.0501522 0.00687808 0.0117868)
(-0.0547984 0.00764829 0.00543789)
(-0.0505002 0.00835065 -0.00291415)
(-0.0364737 0.00810927 -0.0101583)
(-0.0157567 0.00605306 -0.0110997)
(-0.0021501 0.0016361 -0.00292233)
(-0.000629115 0.00144412 0.00344822)
(-0.00411107 0.00185715 0.00691639)
(-0.0101559 0.00189715 0.00827102)
(-0.0163759 0.00193265 0.00846405)
(-0.0215938 0.00211302 0.00759665)
(-0.0242475 0.00245765 0.00543441)
(-0.0227866 0.00281295 0.00209174)
(-0.0165601 0.00283018 -0.00137347)
(-0.00680487 0.00207901 -0.00278949)
(-0.000658876 0.00031482 -0.000526729)
(-0.00110201 -0.00225218 0.0100766)
(-0.00598604 -0.00297903 0.0180548)
(-0.0138826 -0.00296751 0.0206621)
(-0.0219775 -0.00276021 0.0204251)
(-0.0291343 -0.00263277 0.0176877)
(-0.0335804 -0.00272468 0.0120547)
(-0.0331213 -0.00296112 0.00377114)
(-0.0260027 -0.00300097 -0.00499918)
(-0.0125639 -0.00222067 -0.00942206)
(-0.00217997 -5.06944e-05 -0.00467055)
(-0.00346218 -0.00635924 0.0168118)
(-0.0167002 -0.00895986 0.033131)
(-0.0366774 -0.00901833 0.0378832)
(-0.0558651 -0.00832335 0.0352337)
(-0.0711205 -0.00773909 0.0261887)
(-0.0788541 -0.00760515 0.0108068)
(-0.0753383 -0.00774633 -0.00895276)
(-0.0580447 -0.00750382 -0.0268057)
(-0.0286071 -0.00567201 -0.0312344)
(-0.00545518 -0.000949836 -0.0130999)
(-0.0053803 -0.00812831 0.0179137)
(-0.025142 -0.0120817 0.0370852)
(-0.0539664 -0.0122255 0.0418955)
(-0.0803518 -0.011127 0.0364591)
(-0.0997997 -0.00999374 0.0220558)
(-0.107934 -0.00924471 -0.000519885)
(-0.100795 -0.0087743 -0.0273789)
(-0.0761117 -0.00817556 -0.0491618)
(-0.036833 -0.00641112 -0.0500856)
(-0.00674515 -0.00196701 -0.0196153)
(-0.00666699 -0.00641644 0.0172673)
(-0.0308421 -0.00978022 0.0368973)
(-0.0654556 -0.00989023 0.0410255)
(-0.0960672 -0.00888336 0.0333093)
(-0.11737 -0.00775464 0.0152158)
(-0.124766 -0.00684505 -0.0116984)
(-0.114564 -0.00617542 -0.0422371)
(-0.0851478 -0.00563766 -0.0651212)
(-0.0404011 -0.00456675 -0.0624911)
(-0.00701746 -0.00172785 -0.0236334)
(-0.00730368 -0.00240295 0.0166174)
(-0.0336868 -0.00369849 0.036113)
(-0.0711395 -0.00373447 0.0397093)
(-0.10366 -0.00332683 0.0307526)
(-0.125569 -0.00285537 0.010842)
(-0.132276 -0.00245242 -0.0179889)
(-0.120393 -0.00215421 -0.0499019)
(-0.088738 -0.00195156 -0.0728641)
(-0.0416513 -0.00161434 -0.0682578)
(-0.00701028 -0.000669217 -0.0254327)
(-0.00730368 0.00240296 0.0166174)
(-0.0336868 0.0036985 0.036113)
(-0.0711395 0.00373447 0.0397093)
(-0.10366 0.00332683 0.0307526)
(-0.125569 0.00285537 0.010842)
(-0.132276 0.00245242 -0.0179889)
(-0.120393 0.00215422 -0.0499019)
(-0.088738 0.00195156 -0.0728641)
(-0.0416513 0.00161434 -0.0682578)
(-0.00701028 0.000669218 -0.0254327)
(-0.00666699 0.00641644 0.0172673)
(-0.0308421 0.00978023 0.0368973)
(-0.0654556 0.00989024 0.0410255)
(-0.0960672 0.00888337 0.0333093)
(-0.11737 0.00775465 0.0152158)
(-0.124766 0.00684505 -0.0116984)
(-0.114564 0.00617542 -0.0422371)
(-0.0851478 0.00563767 -0.0651212)
(-0.0404011 0.00456676 -0.0624911)
(-0.00701746 0.00172785 -0.0236334)
(-0.0053803 0.00812831 0.0179137)
(-0.025142 0.0120817 0.0370852)
(-0.0539664 0.0122255 0.0418955)
(-0.0803518 0.011127 0.0364591)
(-0.0997997 0.00999374 0.0220558)
(-0.107934 0.00924472 -0.000519886)
(-0.100795 0.0087743 -0.0273789)
(-0.0761117 0.00817556 -0.0491619)
(-0.036833 0.00641112 -0.0500856)
(-0.00674515 0.00196701 -0.0196153)
(-0.00346218 0.00635925 0.0168118)
(-0.0167002 0.00895986 0.033131)
(-0.0366774 0.00901833 0.0378832)
(-0.0558651 0.00832335 0.0352337)
(-0.0711205 0.00773909 0.0261887)
(-0.0788541 0.00760515 0.0108068)
(-0.0753383 0.00774633 -0.00895276)
(-0.0580447 0.00750382 -0.0268057)
(-0.0286071 0.00567201 -0.0312344)
(-0.00545518 0.000949837 -0.0130999)
(-0.00110201 0.00225218 0.0100766)
(-0.00598605 0.00297903 0.0180548)
(-0.0138826 0.00296751 0.0206621)
(-0.0219775 0.00276021 0.0204251)
(-0.0291343 0.00263277 0.0176877)
(-0.0335804 0.00272468 0.0120547)
(-0.0331213 0.00296112 0.00377114)
(-0.0260027 0.00300097 -0.00499918)
(-0.0125639 0.00222067 -0.00942206)
(-0.00217997 5.06945e-05 -0.00467056)
(-0.00147115 -0.00296072 0.018835)
(-0.00732353 -0.0038447 0.0321009)
(-0.0164289 -0.00357739 0.0357333)
(-0.0259808 -0.00287741 0.0346433)
(-0.035341 -0.0021802 0.0296095)
(-0.0428223 -0.00180515 0.0198662)
(-0.045421 -0.00188977 0.00529245)
(-0.0393451 -0.0022544 -0.0112094)
(-0.0225365 -0.00198447 -0.0213002)
(-0.00547433 0.000129558 -0.0136457)
(-0.00466998 -0.00816559 0.0314812)
(-0.0212395 -0.0111551 0.0583782)
(-0.0453564 -0.0103311 0.0648568)
(-0.0686187 -0.00798974 0.0592092)
(-0.0884677 -0.0054718 0.0434586)
(-0.10139 -0.00367234 0.0174554)
(-0.102366 -0.00302573 -0.0167931)
(-0.0855281 -0.00354525 -0.0504405)
(-0.0485752 -0.00354982 -0.0635343)
(-0.0117535 -0.000176395 -0.0330417)
(-0.00727357 -0.0101888 0.0346752)
(-0.0323508 -0.0145487 0.0662766)
(-0.0675837 -0.0133296 0.0724929)
(-0.0995353 -0.00976722 0.0621271)
(-0.124307 -0.00573361 0.0379333)
(-0.137737 -0.00246383 0.000912881)
(-0.134809 -0.000851549 -0.0445402)
(-0.109825 -0.00132598 -0.0855132)
(-0.0613514 -0.00236536 -0.0953866)
(-0.0144303 -0.000681323 -0.0458446)
(-0.00901985 -0.00791029 0.0347876)
(-0.0398196 -0.0115275 0.0672919)
(-0.0821738 -0.010434 0.0722353)
(-0.118868 -0.00730538 0.0582365)
(-0.145282 -0.00370513 0.0286664)
(-0.157442 -0.000693179 -0.014323)
(-0.150962 0.000777655 -0.0647542)
(-0.120938 0.000301243 -0.107832)
(-0.0667647 -0.000996843 -0.114083)
(-0.0153549 -0.000580023 -0.0529428)
(-0.00987819 -0.00293677 0.0343927)
(-0.0435047 -0.00431137 0.0668041)
(-0.0892623 -0.00387257 0.0708325)
(-0.127939 -0.00264067 0.0549377)
(-0.154633 -0.00122075 0.0229042)
(-0.165667 -3.15995e-05 -0.0224335)
(-0.157248 0.000544501 -0.0744569)
(-0.125021 0.000330568 -0.117807)
(-0.0686816 -0.000235222 -0.122103)
(-0.0156317 -0.000218376 -0.0559042)
(-0.00987819 0.00293677 0.0343927)
(-0.0435047 0.00431138 0.0668041)
(-0.0892623 0.00387257 0.0708325)
(-0.127939 0.00264067 0.0549377)
(-0.154633 0.00122075 0.0229042)
(-0.165667 3.16017e-05 -0.0224335)
(-0.157248 -0.000544499 -0.0744569)
(-0.125021 -0.000330566 -0.117807)
(-0.0686816 0.000235223 -0.122103)
(-0.0156317 0.000218376 -0.0559042)
(-0.00901985 0.0079103 0.0347876)
(-0.0398196 0.0115275 0.0672919)
(-0.0821738 0.010434 0.0722353)
(-0.118868 0.00730538 0.0582365)
(-0.145282 0.00370513 0.0286664)
(-0.157442 0.000693181 -0.014323)
(-0.150962 -0.000777653 -0.0647542)
(-0.120938 -0.000301241 -0.107832)
(-0.0667647 0.000996844 -0.114083)
(-0.0153549 0.000580023 -0.0529428)
(-0.00727357 0.0101888 0.0346752)
(-0.0323508 0.0145487 0.0662766)
(-0.0675837 0.0133296 0.0724929)
(-0.0995353 0.00976723 0.0621271)
(-0.124307 0.00573361 0.0379333)
(-0.137737 0.00246383 0.000912879)
(-0.134809 0.00085155 -0.0445402)
(-0.109825 0.00132598 -0.0855132)
(-0.0613514 0.00236536 -0.0953866)
(-0.0144303 0.000681324 -0.0458446)
(-0.00466998 0.0081656 0.0314812)
(-0.0212395 0.0111551 0.0583782)
(-0.0453564 0.0103311 0.0648568)
(-0.0686187 0.00798975 0.0592092)
(-0.0884677 0.00547181 0.0434586)
(-0.10139 0.00367235 0.0174554)
(-0.102366 0.00302573 -0.0167931)
(-0.0855282 0.00354525 -0.0504405)
(-0.0485752 0.00354982 -0.0635343)
(-0.0117535 0.000176395 -0.0330417)
(-0.00147115 0.00296072 0.018835)
(-0.00732353 0.0038447 0.0321009)
(-0.0164289 0.00357739 0.0357333)
(-0.0259808 0.00287741 0.0346433)
(-0.035341 0.00218021 0.0296095)
(-0.0428223 0.00180516 0.0198662)
(-0.045421 0.00188977 0.00529245)
(-0.0393451 0.0022544 -0.0112094)
(-0.0225365 0.00198447 -0.0213002)
(-0.00547433 -0.000129559 -0.0136457)
(-0.00200602 -0.00351741 0.0295298)
(-0.00859055 -0.00436258 0.0481783)
(-0.018067 -0.00356156 0.0521198)
(-0.0283099 -0.00199834 0.0495764)
(-0.0397958 -0.000296462 0.0419363)
(-0.0514786 0.00101089 0.02781)
(-0.0596183 0.00134666 0.00585776)
(-0.0575565 0.000404224 -0.0212352)
(-0.0391152 -0.000762618 -0.0413425)
(-0.0120614 3.56809e-05 -0.0315191)
(-0.0058875 -0.00951851 0.0492149)
(-0.0248122 -0.0123453 0.0873568)
(-0.051102 -0.00985831 0.0947433)
(-0.0766505 -0.00481693 0.0854384)
(-0.100482 0.000853398 0.0628346)
(-0.120035 0.00547018 0.0258922)
(-0.129197 0.0073508 -0.0249479)
(-0.117858 0.00520722 -0.0801884)
(-0.0778236 0.000981351 -0.110937)
(-0.0231529 0.000104774 -0.0695611)
(-0.00889915 -0.0116364 0.0550345)
(-0.0375319 -0.0156804 0.1001)
(-0.0761831 -0.0120997 0.10712)
(-0.110918 -0.0047678 0.0916484)
(-0.139578 0.00352594 0.0583806)
(-0.159256 0.0102598 0.00763372)
(-0.164195 0.0130235 -0.0579881)
(-0.144807 0.0100651 -0.124874)
(-0.0940542 0.00369186 -0.155819)
(-0.0275469 0.000198157 -0.0912151)
(-0.0108663 -0.00890074 0.0562674)
(-0.0458903 -0.0121928 0.102913)
(-0.0921664 -0.00912617 0.108319)
(-0.131375 -0.00291954 0.088455)
(-0.160827 0.00402164 0.0491459)
(-0.178154 0.00950658 -0.00796464)
(-0.178954 0.0114521 -0.0790814)
(-0.155002 0.00872931 -0.1494)
(-0.100128 0.00342175 -0.178692)
(-0.0292225 0.000221908 -0.101872)
(-0.0118115 -0.00327814 0.0563277)
(-0.0499198 -0.00451445 0.103045)
(-0.0996975 -0.00331924 0.10731)
(-0.140527 -0.000924818 0.0852682)
(-0.169595 0.00172822 0.0434538)
(-0.18516 0.00378258 -0.0157806)
(-0.183825 0.00442344 -0.0882779)
(-0.158159 0.00332154 -0.159262)
(-0.102176 0.00132138 -0.187629)
(-0.0298403 9.73208e-05 -0.106014)
(-0.0118115 0.00327814 0.0563277)
(-0.0499198 0.00451445 0.103045)
(-0.0996975 0.00331924 0.10731)
(-0.140527 0.000924819 0.0852682)
(-0.169595 -0.00172822 0.0434538)
(-0.18516 -0.00378258 -0.0157806)
(-0.183825 -0.00442344 -0.0882779)
(-0.158159 -0.00332154 -0.159262)
(-0.102176 -0.00132138 -0.187629)
(-0.0298403 -9.73201e-05 -0.106014)
(-0.0108663 0.00890074 0.0562674)
(-0.0458903 0.0121928 0.102913)
(-0.0921664 0.00912617 0.108319)
(-0.131375 0.00291955 0.088455)
(-0.160827 -0.00402164 0.0491459)
(-0.178154 -0.00950658 -0.00796465)
(-0.178954 -0.0114521 -0.0790814)
(-0.155002 -0.0087293 -0.1494)
(-0.100128 -0.00342175 -0.178692)
(-0.0292225 -0.000221908 -0.101872)
(-0.00889915 0.0116364 0.0550345)
(-0.0375319 0.0156804 0.1001)
(-0.0761831 0.0120997 0.10712)
(-0.110918 0.0047678 0.0916484)
(-0.139578 -0.00352594 0.0583806)
(-0.159256 -0.0102598 0.00763372)
(-0.164195 -0.0130235 -0.0579881)
(-0.144807 -0.0100651 -0.124874)
(-0.0940542 -0.00369186 -0.155819)
(-0.0275469 -0.000198156 -0.0912151)
(-0.0058875 0.00951851 0.0492149)
(-0.0248122 0.0123453 0.0873568)
(-0.051102 0.00985831 0.0947433)
(-0.0766505 0.00481693 0.0854384)
(-0.100482 -0.000853397 0.0628346)
(-0.120035 -0.00547018 0.0258922)
(-0.129197 -0.0073508 -0.0249479)
(-0.117858 -0.00520722 -0.0801884)
(-0.0778236 -0.000981351 -0.110937)
(-0.0231529 -0.000104775 -0.0695611)
(-0.00200602 0.00351741 0.0295298)
(-0.00859056 0.00436258 0.0481783)
(-0.018067 0.00356156 0.0521198)
(-0.0283099 0.00199834 0.0495764)
(-0.0397958 0.000296463 0.0419363)
(-0.0514786 -0.00101089 0.02781)
(-0.0596183 -0.00134666 0.00585776)
(-0.0575565 -0.000404225 -0.0212352)
(-0.0391152 0.000762618 -0.0413425)
(-0.0120614 -3.56815e-05 -0.0315191)
(-0.00332934 -0.00395139 0.0423588)
(-0.0107729 -0.00451454 0.0649578)
(-0.0191375 -0.00284613 0.0674797)
(-0.0282715 2.26368e-05 0.0623946)
(-0.0405501 0.0033395 0.0518883)
(-0.0564513 0.00629133 0.0336752)
(-0.0722742 0.007712 0.00431457)
(-0.0783296 0.00623093 -0.0357597)
(-0.0626104 0.00249037 -0.0714485)
(-0.0228678 -0.000322025 -0.0638565)
(-0.00784696 -0.0104273 0.0697159)
(-0.028265 -0.0124834 0.117768)
(-0.0534111 -0.00754711 0.124218)
(-0.0772064 0.0011812 0.110582)
(-0.101494 0.0111837 0.081972)
(-0.125926 0.0198337 0.0358883)
(-0.14465 0.0237387 -0.0306094)
(-0.144181 0.019354 -0.111271)
(-0.110421 0.00818318 -0.171264)
(-0.0388415 -0.000799115 -0.13061)
(-0.0108817 -0.0124406 0.0781648)
(-0.0410497 -0.0154979 0.135686)
(-0.0783197 -0.00876764 0.142285)
(-0.110284 0.00319142 0.122173)
(-0.137746 0.0164947 0.0823731)
(-0.160381 0.0271958 0.0216994)
(-0.17344 0.0308766 -0.0613566)
(-0.16512 0.0241658 -0.157758)
(-0.124326 0.0100851 -0.224606)
(-0.0436051 -0.000478109 -0.163247)
(-0.0127364 -0.00935795 0.0804877)
(-0.0490737 -0.0118467 0.140504)
(-0.0934138 -0.00631945 0.145702)
(-0.12866 0.00339495 0.12142)
(-0.155259 0.0138812 0.076219)
(-0.173897 0.0217334 0.0101008)
(-0.181943 0.0235899 -0.0780892)
(-0.169775 0.0176283 -0.179261)
(-0.128017 0.0070774 -0.248078)
(-0.0453751 -0.000183009 -0.177678)
(-0.0135885 -0.00341625 0.0809956)
(-0.0527999 -0.00434564 0.14137)
(-0.10021 -0.00223993 0.145498)
(-0.13633 0.00142591 0.119258)
(-0.161654 0.00530698 0.0721146)
(-0.17774 0.00807753 0.00462585)
(-0.183459 0.00855544 -0.0845513)
(-0.170332 0.00621908 -0.186973)
(-0.129143 0.00243923 -0.256565)
(-0.046129 -3.25711e-05 -0.183058)
(-0.0135885 0.00341625 0.0809956)
(-0.0527999 0.00434564 0.14137)
(-0.10021 0.00223993 0.145498)
(-0.13633 -0.00142591 0.119258)
(-0.161654 -0.00530698 0.0721146)
(-0.17774 -0.00807752 0.00462585)
(-0.183459 -0.00855544 -0.0845513)
(-0.170332 -0.00621907 -0.186973)
(-0.129143 -0.00243923 -0.256565)
(-0.046129 3.25721e-05 -0.183058)
(-0.0127364 0.00935795 0.0804877)
(-0.0490737 0.0118467 0.140504)
(-0.0934138 0.00631945 0.145702)
(-0.12866 -0.00339495 0.12142)
(-0.155259 -0.0138812 0.076219)
(-0.173897 -0.0217334 0.0101008)
(-0.181943 -0.0235899 -0.0780892)
(-0.169775 -0.0176283 -0.179261)
(-0.128017 -0.0070774 -0.248078)
(-0.0453751 0.000183009 -0.177678)
(-0.0108817 0.0124406 0.0781648)
(-0.0410497 0.0154979 0.135686)
(-0.0783197 0.00876764 0.142285)
(-0.110284 -0.00319141 0.122173)
(-0.137746 -0.0164947 0.0823731)
(-0.160381 -0.0271958 0.0216994)
(-0.17344 -0.0308766 -0.0613566)
(-0.16512 -0.0241658 -0.157758)
(-0.124326 -0.0100851 -0.224606)
(-0.0436051 0.000478109 -0.163247)
(-0.00784696 0.0104273 0.0697159)
(-0.028265 0.0124834 0.117768)
(-0.0534111 0.00754711 0.124218)
(-0.0772064 -0.0011812 0.110582)
(-0.101494 -0.0111837 0.081972)
(-0.125926 -0.0198337 0.0358883)
(-0.14465 -0.0237387 -0.0306094)
(-0.144181 -0.019354 -0.111271)
(-0.110421 -0.00818318 -0.171264)
(-0.0388415 0.000799115 -0.13061)
(-0.00332934 0.00395139 0.0423588)
(-0.0107729 0.00451454 0.0649578)
(-0.0191375 0.00284613 0.0674797)
(-0.0282715 -2.26355e-05 0.0623946)
(-0.0405501 -0.0033395 0.0518883)
(-0.0564513 -0.00629134 0.0336752)
(-0.0722742 -0.007712 0.00431457)
(-0.0783296 -0.00623093 -0.0357597)
(-0.0626104 -0.00249037 -0.0714485)
(-0.0228678 0.000322025 -0.0638565)
(-0.00706816 -0.00459663 0.0593691)
(-0.0162561 -0.00471136 0.0809018)
(-0.0201957 -0.00190021 0.0784778)
(-0.0242463 0.00258766 0.0689018)
(-0.0334559 0.0078887 0.0552141)
(-0.050781 0.0130697 0.0339596)
(-0.0743685 0.0163046 -0.000962654)
(-0.0924175 0.0146303 -0.0542144)
(-0.0876808 0.0072867 -0.110599)
(-0.0362034 -0.00136882 -0.117347)
(-0.01266 -0.0114977 0.094652)
(-0.0343772 -0.0124071 0.146589)
(-0.0522532 -0.0046152 0.147876)
(-0.0663065 0.00801511 0.128606)
(-0.0823498 0.0225052 0.0957301)
(-0.103692 0.035643 0.045233)
(-0.127724 0.0423705 -0.0302873)
(-0.140479 0.0359545 -0.133874)
(-0.1271 0.0159423 -0.232914)
(-0.0500166 -0.00435815 -0.22098)
(-0.0153807 -0.0131154 0.104867)
(-0.0454551 -0.0149317 0.168898)
(-0.0735096 -0.00503124 0.171577)
(-0.0929481 0.0110571 0.147082)
(-0.108657 0.0286191 0.104563)
(-0.124255 0.0428248 0.0410969)
(-0.139252 0.0476581 -0.04994)
(-0.143128 0.0373003 -0.17143)
(-0.128474 0.0145026 -0.285404)
(-0.0509369 -0.00421854 -0.263101)
(-0.0168062 -0.00960897 0.107629)
(-0.0518308 -0.0111764 0.175158)
(-0.0854027 -0.00341206 0.177301)
(-0.10635 0.00907574 0.149895)
(-0.11934 0.0221581 0.103625)
(-0.12913 0.0317679 0.0363313)
(-0.137941 0.0335931 -0.0586952)
(-0.138292 0.0246538 -0.185823)
(-0.126424 0.0087004 -0.305685)
(-0.0514018 -0.00265904 -0.280142)
(-0.0174036 -0.00346303 0.108276)
(-0.0546196 -0.00405617 0.176485)
(-0.0904006 -0.00116494 0.177941)
(-0.111368 0.00344156 0.149231)
(-0.122349 0.00815 0.10188)
(-0.129079 0.0114088 0.0340102)
(-0.135482 0.011723 -0.0616087)
(-0.135422 0.0082985 -0.190537)
(-0.125828 0.00278215 -0.312823)
(-0.0519258 -0.000862127 -0.286435)
(-0.0174036 0.00346303 0.108276)
(-0.0546196 0.00405617 0.176485)
(-0.0904006 0.00116494 0.177941)
(-0.111368 -0.00344156 0.149231)
(-0.122349 -0.00815 0.10188)
(-0.129079 -0.0114088 0.0340102)
(-0.135482 -0.011723 -0.0616087)
(-0.135422 -0.0082985 -0.190537)
(-0.125828 -0.00278215 -0.312823)
(-0.0519258 0.000862128 -0.286435)
(-0.0168062 0.00960898 0.107629)
(-0.0518308 0.0111764 0.175158)
(-0.0854027 0.00341206 0.177301)
(-0.10635 -0.00907574 0.149895)
(-0.11934 -0.0221581 0.103625)
(-0.12913 -0.0317679 0.0363313)
(-0.137941 -0.0335931 -0.0586952)
(-0.138292 -0.0246538 -0.185823)
(-0.126424 -0.0087004 -0.305685)
(-0.0514018 0.00265904 -0.280142)
(-0.0153807 0.0131154 0.104867)
(-0.0454551 0.0149317 0.168898)
(-0.0735096 0.00503124 0.171577)
(-0.0929481 -0.0110571 0.147082)
(-0.108657 -0.0286191 0.104563)
(-0.124255 -0.0428248 0.0410969)
(-0.139252 -0.0476581 -0.04994)
(-0.143128 -0.0373003 -0.17143)
(-0.128474 -0.0145026 -0.285404)
(-0.0509369 0.00421854 -0.263101)
(-0.01266 0.0114977 0.094652)
(-0.0343772 0.0124071 0.146589)
(-0.0522532 0.0046152 0.147876)
(-0.0663065 -0.00801511 0.128606)
(-0.0823498 -0.0225052 0.0957301)
(-0.103692 -0.035643 0.045233)
(-0.127724 -0.0423705 -0.0302873)
(-0.140479 -0.0359545 -0.133874)
(-0.1271 -0.0159423 -0.232914)
(-0.0500166 0.00435814 -0.22098)
(-0.00706816 0.00459663 0.0593691)
(-0.0162561 0.00471136 0.0809018)
(-0.0201957 0.00190021 0.0784778)
(-0.0242463 -0.00258766 0.0689018)
(-0.0334559 -0.0078887 0.0552141)
(-0.050781 -0.0130697 0.0339596)
(-0.0743685 -0.0163046 -0.000962654)
(-0.0924175 -0.0146303 -0.0542144)
(-0.0876808 -0.0072867 -0.110599)
(-0.0362034 0.00136882 -0.117347)
(-0.0165079 -0.00628509 0.0818834)
(-0.0281929 -0.00638974 0.0925899)
(-0.0178929 -0.00257348 0.0808004)
(-0.00859759 0.00340163 0.0645671)
(-0.00712525 0.0103903 0.0477172)
(-0.018718 0.017671 0.0256236)
(-0.045545 0.0232629 -0.0110463)
(-0.0762232 0.0218734 -0.0737269)
(-0.0964828 0.0102608 -0.153036)
(-0.0418386 -0.00610465 -0.196043)
(-0.025541 -0.0144063 0.122688)
(-0.0496248 -0.0151233 0.167212)
(-0.0448813 -0.00547812 0.158242)
(-0.0337102 0.00959696 0.13118)
(-0.0261358 0.0267431 0.0962674)
(-0.0287445 0.0431669 0.0486446)
(-0.0462559 0.053766 -0.0235576)
(-0.0679474 0.0474566 -0.136979)
(-0.0948689 0.0189542 -0.274731)
(-0.0358477 -0.0144348 -0.326778)
(-0.0283526 -0.0152202 0.132633)
(-0.059141 -0.0169413 0.192151)
(-0.0611346 -0.0056974 0.186619)
(-0.0507555 0.0117531 0.156326)
(-0.0381035 0.0306869 0.114443)
(-0.0297526 0.0467734 0.0570357)
(-0.0335965 0.0542022 -0.0269916)
(-0.0433347 0.0434288 -0.156837)
(-0.0745215 0.0138221 -0.315216)
(-0.0274704 -0.0125663 -0.36812)
(-0.0293656 -0.0106217 0.13487)
(-0.0635001 -0.0121218 0.198964)
(-0.068951 -0.00373281 0.194355)
(-0.0583715 0.00905715 0.162905)
(-0.0420614 0.0223726 0.119039)
(-0.0270725 0.0326787 0.0592111)
(-0.0239975 0.0359512 -0.0277194)
(-0.0296325 0.026843 -0.162986)
(-0.0661271 0.00742617 -0.329374)
(-0.0256965 -0.00743153 -0.383389)
(-0.0296825 -0.00373691 0.135292)
(-0.0651119 -0.00430278 0.200355)
(-0.071751 -0.00125033 0.195686)
(-0.0606562 0.00334302 0.163768)
(-0.042426 0.00799973 0.119547)
(-0.0246076 0.0114068 0.0595191)
(-0.0193016 0.0121978 -0.0278864)
(-0.0246051 0.00877532 -0.165064)
(-0.064268 0.0022721 -0.334535)
(-0.0258978 -0.00233827 -0.38903)
(-0.0296825 0.00373691 0.135292)
(-0.0651119 0.00430279 0.200355)
(-0.071751 0.00125033 0.195686)
(-0.0606562 -0.00334302 0.163768)
(-0.042426 -0.00799973 0.119547)
(-0.0246076 -0.0114068 0.0595191)
(-0.0193016 -0.0121978 -0.0278864)
(-0.0246051 -0.00877532 -0.165064)
(-0.064268 -0.0022721 -0.334535)
(-0.0258978 0.00233827 -0.38903)
(-0.0293656 0.0106217 0.13487)
(-0.0635001 0.0121218 0.198964)
(-0.068951 0.00373281 0.194355)
(-0.0583715 -0.00905715 0.162905)
(-0.0420614 -0.0223726 0.119039)
(-0.0270725 -0.0326787 0.0592111)
(-0.0239975 -0.0359512 -0.0277194)
(-0.0296325 -0.026843 -0.162986)
(-0.0661271 -0.00742617 -0.329374)
(-0.0256965 0.00743153 -0.383389)
(-0.0283526 0.0152202 0.132633)
(-0.059141 0.0169413 0.192151)
(-0.0611346 0.0056974 0.186619)
(-0.0507555 -0.0117531 0.156326)
(-0.0381035 -0.0306869 0.114443)
(-0.0297526 -0.0467734 0.0570357)
(-0.0335965 -0.0542022 -0.0269916)
(-0.0433347 -0.0434288 -0.156837)
(-0.0745215 -0.0138221 -0.315216)
(-0.0274704 0.0125663 -0.36812)
(-0.025541 0.0144063 0.122688)
(-0.0496248 0.0151233 0.167212)
(-0.0448813 0.00547812 0.158242)
(-0.0337102 -0.00959696 0.13118)
(-0.0261358 -0.0267431 0.0962674)
(-0.0287445 -0.0431669 0.0486446)
(-0.0462559 -0.053766 -0.0235576)
(-0.0679474 -0.0474566 -0.136979)
(-0.0948689 -0.0189542 -0.274731)
(-0.0358477 0.0144348 -0.326778)
(-0.0165079 0.00628509 0.0818834)
(-0.0281929 0.00638974 0.0925899)
(-0.0178929 0.00257348 0.0808004)
(-0.00859759 -0.00340163 0.0645671)
(-0.00712525 -0.0103903 0.0477172)
(-0.018718 -0.017671 0.0256236)
(-0.045545 -0.0232629 -0.0110463)
(-0.0762232 -0.0218734 -0.0737269)
(-0.0964828 -0.0102608 -0.153036)
(-0.0418386 0.00610465 -0.196043)
(-0.0238382 -0.011225 0.150199)
(-0.0202628 -0.0120915 0.0981611)
(0.02816 -0.00747536 0.0628832)
(0.062454 -0.000897606 0.0415086)
(0.0832098 0.00651636 0.0250461)
(0.0853935 0.0144035 0.00719973)
(0.0630868 0.0216238 -0.0213941)
(0.0255473 0.0208239 -0.0789231)
(-0.0421245 0.00509388 -0.174119)
(-0.00680911 -0.0179118 -0.259786)
(-0.0425057 -0.0230255 0.209701)
(-0.0415581 -0.02617 0.169804)
(0.0233674 -0.016773 0.128187)
(0.0792572 -0.0025075 0.0960069)
(0.123948 0.0138066 0.066309)
(0.151853 0.030339 0.0324444)
(0.150025 0.0445942 -0.0170332)
(0.13091 0.0426256 -0.107464)
(0.0400735 0.00999288 -0.256445)
(0.0437258 -0.032012 -0.369614)
(-0.0477896 -0.0209457 0.219932)
(-0.0511425 -0.0259676 0.190327)
(0.0128629 -0.0171891 0.151776)
(0.0734084 -0.00283507 0.118326)
(0.127043 0.0135272 0.0848054)
(0.168905 0.0289713 0.045056)
(0.181286 0.0401699 -0.0114128)
(0.176554 0.0354465 -0.110545)
(0.0808866 0.00573373 -0.275273)
(0.0631816 -0.0227585 -0.39523)
(-0.0488186 -0.0134181 0.220959)
(-0.0539477 -0.0172661 0.194489)
(0.00879225 -0.0113184 0.15751)
(0.0705485 -0.00161378 0.124315)
(0.127238 0.00915327 0.0901829)
(0.17431 0.0188302 0.0489768)
(0.191566 0.0249251 -0.00971137)
(0.19095 0.0208467 -0.111759)
(0.0909607 0.00332432 -0.28192)
(0.0662484 -0.0119437 -0.403914)
(-0.0488698 -0.00453039 0.220762)
(-0.0543941 -0.0059129 0.194831)
(0.00806503 -0.0038257 0.158189)
(0.0703817 -0.000465514 0.125129)
(0.128123 0.00318408 0.0910596)
(0.176766 0.00636543 0.0497458)
(0.195135 0.00821179 -0.00950157)
(0.19475 0.00670842 -0.112676)
(0.092109 0.00111427 -0.28469)
(0.0658796 -0.00355249 -0.40708)
(-0.0488698 0.00453039 0.220762)
(-0.0543941 0.0059129 0.194831)
(0.00806503 0.00382571 0.158189)
(0.0703817 0.000465514 0.125129)
(0.128123 -0.00318408 0.0910596)