/*--------------------------------*- C++ -*----------------------------------*\
  =========                 |
  \\      /  F ield         | OpenFOAM: The Open Source CFD Toolbox
   \\    /   O peration     | Website:  https://openfoam.org
    \\  /    A nd           | Version:  9
     \\/     M anipulation  |
\*---------------------------------------------------------------------------*/
FoamFile
{
    format      ascii;
    class       volScalarField;
    location    "0.8";
    object      p;
}
// * * * * * * * * * * * * * * * * * * * * * * * * * * * * * * * * * * * * * //

dimensions      [0 2 -2 0 0 0 0];

internalField   nonuniform List<scalar> 
1000
(
8.61934e-07
-0.000489217
-0.000179037
0.000882073
0.0027692
0.00535547
0.00817982
0.0104787
0.0115485
0.0106917
0.000172378
-0.000732637
-0.000530766
0.000576159
0.002646
0.00553243
0.00869952
0.0112171
0.0122292
0.0108221
0.000955987
-0.000225871
-6.28704e-05
0.00114524
0.00346461
0.00672129
0.0102705
0.0129331
0.0136958
0.0115451
0.00180395
0.000437289
0.000586567
0.00189605
0.00444387
0.00803986
0.0118551
0.0145719
0.0150724
0.0123275
0.00233684
0.000882722
0.00103094
0.00240063
0.00507413
0.00884375
0.0128049
0.0155316
0.0158741
0.012814
0.00233688
0.000882755
0.00103096
0.00240064
0.00507415
0.00884377
0.0128049
0.0155316
0.0158741
0.012814
0.00180408
0.000437391
0.000586639
0.00189611
0.00444391
0.00803989
0.0118551
0.0145719
0.0150724
0.0123275
0.00095624
-0.000225688
-6.27446e-05
0.00114533
0.00346467
0.00672133
0.0102705
0.0129331
0.0136959
0.0115452
0.000172878
-0.000732346
-0.000530581
0.000576281
0.00264609
0.00553249
0.00869957
0.0112172
0.0122292
0.0108221
1.99015e-06
-0.000488779
-0.000178794
0.000882224
0.0027693
0.00535554
0.00817987
0.0104788
0.0115485
0.0106918
0.000411506
-2.25598e-05
0.000306809
0.00123711
0.0028727
0.0051661
0.00775248
0.00996288
0.0110534
0.00991088
0.000950977
2.68095e-05
0.000273605
0.00119535
0.00286727
0.00525568
0.00798637
0.0103231
0.0113739
0.00957604
0.00217448
0.000839016
0.0010156
0.00193231
0.00367248
0.006209
0.00917445
0.011589
0.0124334
0.00988288
0.00333761
0.00168645
0.0017994
0.00271353
0.00452714
0.00723178
0.0103682
0.0128123
0.0134477
0.0103457
0.0040307
0.00221096
0.00228785
0.00320044
0.00505576
0.0078615
0.0110846
0.0135304
0.0140417
0.0106664
0.00403074
0.00221098
0.00228787
0.00320045
0.00505577
0.00786152
0.0110846
0.0135304
0.0140417
0.0106664
0.00333771
0.00168654
0.00179946
0.00271358
0.00452717
0.0072318
0.0103682
0.0128123
0.0134477
0.0103457
0.00217466
0.000839164
0.0010157
0.00193239
0.00367253
0.00620904
0.00917449
0.0115891
0.0124334
0.00988289
0.000951277
2.70286e-05
0.000273759
0.00119546
0.00286735
0.00525574
0.00798641
0.0103231
0.011374
0.00957607
0.000411956
-2.22735e-05
0.000306998
0.00123724
0.00287279
0.00516616
0.00775252
0.00996292
0.0110535
0.00991091
-0.000936243
-0.00150446
-0.00129828
-0.000574758
0.000879529
0.00319261
0.00614556
0.00905167
0.010816
0.00950584
-7.37878e-05
-0.00130012
-0.00117972
-0.000459377
0.00103547
0.00346938
0.00662122
0.00969996
0.0113906
0.00893223
0.00167189
-0.000147179
-0.000158733
0.000464191
0.00193109
0.00446435
0.00783617
0.0110463
0.0125379
0.00903143
0.00326402
0.000990477
0.000850245
0.00137679
0.00282483
0.00546427
0.00896671
0.012225
0.0135144
0.00930655
0.00419102
0.00167492
0.00145885
0.00192866
0.00336673
0.00605428
0.00961959
0.0128823
0.0140525
0.00951905
0.00419105
0.00167494
0.00145887
0.00192867
0.00336674
0.00605429
0.0096196
0.0128823
0.0140525
0.00951905
0.00326409
0.000990543
0.000850294
0.00137683
0.00282486
0.00546429
0.00896673
0.012225
0.0135144
0.00930656
0.00167202
-0.000147068
-0.000158649
0.000464253
0.00193113
0.00446439
0.00783621
0.0110463
0.012538
0.00903146
-7.35966e-05
-0.00129997
-0.0011796
-0.00045929
0.00103554
0.00346943
0.00662125
0.00969998
0.0113906
0.00893226
-0.000935997
-0.00150427
-0.00129813
-0.000574655
0.000879605
0.00319267
0.0061456
0.0090517
0.010816
0.00950586
-0.00443512
-0.005131
-0.00510296
-0.004662
-0.00341057
-0.000912419
0.00289519
0.00738952
0.0108565
0.00996002
-0.00325083
-0.00475557
-0.0048158
-0.00435996
-0.00303505
-0.000357979
0.00375294
0.00858036
0.011977
0.00934396
-0.000975873
-0.0032542
-0.00355501
-0.00335389
-0.0022241
0.000467895
0.00472774
0.00981749
0.0131474
0.00934075
0.00105763
-0.00181152
-0.002348
-0.0023989
-0.001465
0.00114911
0.00553317
0.0107479
0.0139759
0.00947378
0.00222666
-0.000956383
-0.00163155
-0.00182908
-0.00100266
0.00157136
0.00597152
0.0112179
0.014382
0.00958788
0.00222668
-0.000956367
-0.00163154
-0.00182907
-0.00100265
0.00157137
0.00597153
0.0112179
0.014382
0.00958788
0.00105769
-0.00181148
-0.00234797
-0.00239887
-0.00146498
0.00114913
0.00553319
0.0107479
0.0139759
0.0094738
-0.000975783
-0.00325412
-0.00355495
-0.00335385
-0.00222406
0.000467931
0.00472778
0.00981754
0.0131475
0.00934077
-0.0032507
-0.00475546
-0.00481571
-0.0043599
-0.00303499
-0.000357939
0.00375296
0.00858036
0.011977
0.00934395
-0.00443497
-0.00513087
-0.00510286
-0.00466192
-0.0034105
-0.000912372
0.00289522
0.00738952
0.0108565
0.00996001
-0.0107675
-0.0114189
-0.0114909
-0.0113452
-0.0103573
-0.00759573
-0.00243309
0.00482201
0.0116503
0.0128486
-0.00930553
-0.0108903
-0.0110712
-0.0109291
-0.00987553
-0.00699157
-0.00152669
0.00628254
0.0132753
0.0126206
-0.00661681
-0.00914009
-0.00973958
-0.0101246
-0.00961032
-0.00705171
-0.00159928
0.00665036
0.0139666
0.0126254
-0.00425731
-0.00748919
-0.00848281
-0.00935713
-0.00931245
-0.0070387
-0.00168152
0.00678607
0.0142919
0.0126762
-0.00291765
-0.00652248
-0.00774244
-0.00888913
-0.00909801
-0.00701248
-0.00171063
0.00682115
0.014396
0.0127057
-0.00291763
-0.00652247
-0.00774243
-0.00888912
-0.009098
-0.00701247
-0.00171062
0.00682116
0.014396
0.0127057
-0.00425728
-0.00748916
-0.00848278
-0.00935711
-0.00931243
-0.00703868
-0.0016815
0.00678609
0.0142919
0.0126762
-0.00661675
-0.00914003
-0.00973953
-0.0101245
-0.00961029
-0.00705168
-0.00159925
0.00665039
0.0139666
0.0126254
-0.00930544
-0.0108903
-0.0110712
-0.010929
-0.00987548
-0.00699153
-0.00152667
0.00628256
0.0132754
0.0126206
-0.0107674
-0.0114189
-0.0114908
-0.0113451
-0.0103572
-0.00759569
-0.00243307
0.00482201
0.0116502
0.0128486
-0.0205542
-0.0206226
-0.020425
-0.0204183
-0.0196733
-0.016674
-0.00977065
0.00156715
0.0144056
0.0210657
-0.0188473
-0.0199949
-0.0199907
-0.0201161
-0.0195689
-0.0168458
-0.0101216
0.00173997
0.0152303
0.0214195
-0.0158835
-0.0181157
-0.0187838
-0.019845
-0.0203601
-0.0185925
-0.0123698
1.35845e-05
0.0145918
0.0214327
-0.0133466
-0.0163709
-0.0176274
-0.0194785
-0.0208321
-0.0197894
-0.0139348
-0.00130135
0.0139224
0.0213472
-0.0119296
-0.015363
-0.0169446
-0.0192104
-0.0209784
-0.0202529
-0.014631
-0.00193718
0.0135518
0.0212703
-0.0119296
-0.015363
-0.0169446
-0.0192104
-0.0209784
-0.0202528
-0.0146309
-0.00193717
0.0135518
0.0212703
-0.0133466
-0.0163709
-0.0176274
-0.0194784
-0.0208321
-0.0197894
-0.0139348
-0.00130134
0.0139224
0.0213472
-0.0158835
-0.0181156
-0.0187838
-0.019845
-0.0203601
-0.0185925
-0.0123698
1.36022e-05
0.0145918
0.0214327
-0.0188472
-0.0199948
-0.0199907
-0.0201161
-0.0195689
-0.0168458
-0.0101215
0.00173999
0.0152303
0.0214196
-0.0205541
-0.0206225
-0.020425
-0.0204182
-0.0196733
-0.016674
-0.00977062
0.00156716
0.0144057
0.0210657
-0.0348696
-0.032618
-0.0311554
-0.0307412
-0.030091
-0.0269463
-0.0183922
-0.0017793
0.0201638
0.0388934
-0.0327196
-0.031842
-0.0308096
-0.0308985
-0.0310088
-0.029014
-0.0217197
-0.00529157
0.0178212
0.0390034
-0.0294621
-0.0297685
-0.02971
-0.0312295
-0.0330755
-0.0328975
-0.0269335
-0.010198
0.0147468
0.0388441
-0.0268047
-0.0279208
-0.0286253
-0.0312209
-0.0342744
-0.0352538
-0.0300733
-0.0131586
0.0128297
0.038705
-0.0253607
-0.026883
-0.0279903
-0.0311133
-0.0347181
-0.0361995
-0.0313658
-0.0144086
0.0119983
0.038623
-0.0253607
-0.026883
-0.0279903
-0.0311133
-0.0347181
-0.0361995
-0.0313658
-0.0144086
0.0119983
0.038623
-0.0268047
-0.0279207
-0.0286253
-0.0312208
-0.0342744
-0.0352538
-0.0300733
-0.0131586
0.0128297
0.038705
-0.029462
-0.0297685
-0.02971
-0.0312294
-0.0330755
-0.0328975
-0.0269335
-0.010198
0.0147468
0.0388441
-0.0327195
-0.031842
-0.0308096
-0.0308984
-0.0310087
-0.029014
-0.0217197
-0.00529156
0.0178212
0.0390034
-0.0348696
-0.032618
-0.0311553
-0.0307411
-0.030091
-0.0269463
-0.0183922
-0.0017793
0.0201638
0.0388935
-0.0575214
-0.046972
-0.0421854
-0.0401037
-0.0389903
-0.0354875
-0.0256307
-0.00310167
0.0303026
0.0732092
-0.0542483
-0.0455027
-0.0415834
-0.040785
-0.0412584
-0.0400008
-0.0330871
-0.0121018
0.0225355
0.073671
-0.0500827
-0.042576
-0.0398422
-0.0410366
-0.0438983
-0.0450838
-0.0402572
-0.0191782
0.0178174
0.075114
-0.0469899
-0.0402421
-0.0383347
-0.0408189
-0.0451717
-0.0477327
-0.0439701
-0.022581
0.0158354
0.0764726
-0.0454044
-0.0390205
-0.0375322
-0.0406069
-0.0455871
-0.0486889
-0.0453658
-0.0238245
0.0152033
0.0771305
-0.0454044
-0.0390205
-0.0375321
-0.0406069
-0.0455871
-0.0486889
-0.0453658
-0.0238245
0.0152033
0.0771305
-0.0469899
-0.0402421
-0.0383347
-0.0408189
-0.0451716
-0.0477327
-0.04397
-0.022581
0.0158354
0.0764726
-0.0500827
-0.0425759
-0.0398421
-0.0410366
-0.0438982
-0.0450838
-0.0402572
-0.0191782
0.0178174
0.075114
-0.0542483
-0.0455027
-0.0415834
-0.040785
-0.0412584
-0.0400008
-0.0330871
-0.0121018
0.0225355
0.073671
-0.0575214
-0.046972
-0.0421854
-0.0401037
-0.0389903
-0.0354875
-0.0256307
-0.00310167
0.0303026
0.0732092
-0.089036
-0.0612086
-0.051942
-0.0463149
-0.0435809
-0.0390112
-0.0263406
0.00468067
0.051652
0.150876
-0.0813631
-0.0572425
-0.0505195
-0.0473162
-0.0469571
-0.0451273
-0.0361808
-0.00610619
0.0452825
0.162521
-0.0749507
-0.0524158
-0.0472544
-0.046582
-0.049158
-0.0499851
-0.0431084
-0.0114028
0.0463342
0.171585
-0.0709526
-0.0491169
-0.0448481
-0.0457009
-0.0499785
-0.0522727
-0.0462167
-0.0132163
0.0476425
0.177295
-0.0691057
-0.0475377
-0.0436891
-0.0452162
-0.0501988
-0.0530758
-0.0473068
-0.0137855
0.0483626
0.179777
-0.0691057
-0.0475377
-0.0436891
-0.0452162
-0.0501988
-0.0530758
-0.0473068
-0.0137855
0.0483626
0.179777
-0.0709526
-0.0491169
-0.0448481
-0.0457009
-0.0499785
-0.0522727
-0.0462167
-0.0132163
0.0476425
0.177295
-0.0749507
-0.0524158
-0.0472544
-0.0465819
-0.049158
-0.0499851
-0.0431084
-0.0114028
0.0463342
0.171585
-0.0813631
-0.0572425
-0.0505195
-0.0473161
-0.0469571
-0.0451273
-0.0361808
-0.00610618
0.0452825
0.162521
-0.0890359
-0.0612086
-0.0519419
-0.0463149
-0.0435809
-0.0390112
-0.0263406
0.00468068
0.051652
0.150876
-0.199282
-0.0738757
-0.0488609
-0.0403939
-0.0361021
-0.0293467
-0.0124393
0.0327899
0.119027
0.324658
-0.186978
-0.0611355
-0.041041
-0.037
-0.036377
-0.0329553
-0.0184462
0.0296163
0.129533
0.359296
-0.178067
-0.052194
-0.0343692
-0.0334181
-0.0359933
-0.0349553
-0.0214308
0.029728
0.138856
0.380165
-0.172919
-0.0471294
-0.0303272
-0.0311
-0.0355098
-0.0357867
-0.0225862
0.0302124
0.14348
0.390196
-0.170657
-0.04495
-0.0285741
-0.0300741
-0.035257
-0.0360937
-0.0230257
0.0304244
0.145243
0.394019
-0.170657
-0.04495
-0.0285741
-0.0300741
-0.0352569
-0.0360937
-0.0230257
0.0304244
0.145243
0.394019
-0.172919
-0.0471294
-0.0303271
-0.0311
-0.0355098
-0.0357867
-0.0225861
0.0302124
0.14348
0.390196
-0.178067
-0.052194
-0.0343692
-0.033418
-0.0359933
-0.0349553
-0.0214308
0.029728
0.138856
0.380165
-0.186978
-0.0611355
-0.041041
-0.037
-0.036377
-0.0329553
-0.0184462
0.0296163
0.129533
0.359296
-0.199282
-0.0738757
-0.0488609
-0.0403939
-0.0361021
-0.0293466
-0.0124393
0.0327899
0.119027
0.324658
)
;

boundaryField
{
    top
    {
        type            zeroGradient;
    }
    others
    {
        type            zeroGradient;
    }
}


// ************************************************************************* //
