/*--------------------------------*- C++ -*----------------------------------*\
  =========                 |
  \\      /  F ield         | OpenFOAM: The Open Source CFD Toolbox
   \\    /   O peration     | Website:  https://openfoam.org
    \\  /    A nd           | Version:  9
     \\/     M anipulation  |
\*---------------------------------------------------------------------------*/
FoamFile
{
    format      ascii;
    class       surfaceScalarField;
    location    "0.8";
    object      phi;
}
// * * * * * * * * * * * * * * * * * * * * * * * * * * * * * * * * * * * * * //

dimensions      [0 3 -1 0 0 0 0];

internalField   nonuniform List<scalar> 
2700
(
-5.72105e-08
-1.09263e-07
1.66449e-07
-3.00414e-07
-1.23117e-07
3.6632e-07
-6.25232e-07
-1.238e-07
4.48618e-07
-9.46742e-07
-1.45116e-07
4.66625e-07
-1.17485e-06
-1.9803e-07
4.2614e-07
-1.20954e-06
-2.76795e-07
3.11485e-07
-9.83756e-07
-3.53182e-07
1.27395e-07
-5.41179e-07
-3.76704e-07
-6.58733e-08
-1.02974e-07
-3.00556e-07
-1.37649e-07
-9.95147e-08
-3.45914e-09
-1.56729e-07
-2.38431e-07
2.85898e-07
-6.86315e-07
-3.18016e-07
7.24483e-07
-1.35935e-06
-3.39598e-07
8.88832e-07
-1.99198e-06
-3.8038e-07
8.67895e-07
-2.40956e-06
-4.63932e-07
6.83483e-07
-2.43431e-06
-5.78577e-07
3.26529e-07
-1.9569e-06
-6.76343e-07
-1.54246e-07
-1.08129e-06
-6.82699e-07
-5.69619e-07
-2.33645e-07
-5.39938e-07
-6.08259e-07
-2.18756e-07
-1.14404e-07
-2.3677e-07
-2.60956e-07
2.59295e-07
-9.64081e-07
-3.72203e-07
7.81498e-07
-1.86278e-06
-4.05753e-07
9.64852e-07
-2.68231e-06
-4.47623e-07
8.8677e-07
-3.19341e-06
-5.24247e-07
5.71422e-07
-3.17473e-06
-6.25035e-07
2.77724e-08
-2.49737e-06
-6.96975e-07
-6.56722e-07
-1.32682e-06
-6.83091e-07
-1.17016e-06
-2.49203e-07
-5.38739e-07
-1.07881e-06
-2.37132e-07
-2.30827e-07
-2.92369e-07
-1.65724e-07
1.97137e-07
-1.15173e-06
-2.43252e-07
7.30414e-07
-2.19671e-06
-2.67322e-07
9.0654e-07
-3.13063e-06
-2.92814e-07
7.79111e-07
-3.68887e-06
-3.36262e-07
3.70263e-07
-3.61278e-06
-3.90599e-07
-3.10533e-07
-2.78627e-06
-4.27107e-07
-1.09637e-06
-1.42086e-06
-4.12454e-07
-1.63605e-06
-2.20424e-07
-3.25207e-07
-1.41397e-06
-1.48859e-07
-3.08697e-07
-3.21423e-07
-6.45019e-13
1.55699e-07
-1.24753e-06
-6.64129e-13
6.82856e-07
-2.36501e-06
-4.24422e-13
8.50156e-07
-3.35295e-06
-3.21078e-13
6.95132e-07
-3.92808e-06
-2.3224e-13
2.38867e-07
-3.81798e-06
-1.87979e-13
-5.00704e-07
-2.91017e-06
-1.6519e-13
-1.33491e-06
-1.4481e-06
-1.45968e-13
-1.87452e-06
-1.95895e-07
-1.20745e-13
-1.57742e-06
-9.6985e-14
-3.44754e-07
-3.21423e-07
1.65723e-07
1.55699e-07
-1.24753e-06
2.43251e-07
6.82856e-07
-2.36501e-06
2.67321e-07
8.50156e-07
-3.35295e-06
2.92813e-07
6.95132e-07
-3.92808e-06
3.36262e-07
2.38867e-07
-3.81798e-06
3.90598e-07
-5.00704e-07
-2.91017e-06
4.27107e-07
-1.33491e-06
-1.4481e-06
4.12454e-07
-1.87452e-06
-1.95895e-07
3.25207e-07
-1.57742e-06
1.48859e-07
-3.44754e-07
-2.92369e-07
2.60955e-07
1.97138e-07
-1.15173e-06
3.72202e-07
7.30414e-07
-2.1967e-06
4.05752e-07
9.0654e-07
-3.13062e-06
4.47622e-07
7.79111e-07
-3.68887e-06
5.24247e-07
3.70263e-07
-3.61278e-06
6.25035e-07
-3.10533e-07
-2.78627e-06
6.96975e-07
-1.09637e-06
-1.42086e-06
6.83091e-07
-1.63605e-06
-2.20424e-07
5.38739e-07
-1.41397e-06
2.37132e-07
-3.08697e-07
-2.36769e-07
2.38429e-07
2.59295e-07
-9.6408e-07
3.18014e-07
7.81499e-07
-1.86278e-06
3.39597e-07
9.64852e-07
-2.68231e-06
3.8038e-07
8.8677e-07
-3.19341e-06
4.63932e-07
5.71422e-07
-3.17473e-06
5.78577e-07
2.77724e-08
-2.49737e-06
6.76343e-07
-6.56722e-07
-1.32682e-06
6.82698e-07
-1.17016e-06
-2.49203e-07
5.39937e-07
-1.07881e-06
2.18756e-07
-2.30827e-07
-1.56726e-07
1.09255e-07
2.859e-07
-6.86313e-07
1.23115e-07
7.24485e-07
-1.35935e-06
1.23799e-07
8.88833e-07
-1.99198e-06
1.45115e-07
8.67895e-07
-2.40956e-06
1.9803e-07
6.83483e-07
-2.43431e-06
2.76794e-07
3.26529e-07
-1.9569e-06
3.53182e-07
-1.54246e-07
-1.08129e-06
3.76704e-07
-5.69619e-07
-2.33645e-07
3.00556e-07
-6.08259e-07
9.95146e-08
-1.14404e-07
-5.72028e-08
1.66457e-07
-3.00411e-07
3.66322e-07
-6.25231e-07
4.48619e-07
-9.46741e-07
4.66625e-07
-1.17485e-06
4.26141e-07
-1.20954e-06
3.11485e-07
-9.83756e-07
1.27395e-07
-5.41179e-07
-6.58731e-08
-1.02974e-07
-1.37649e-07
-3.459e-09
-2.1764e-07
-2.85637e-07
6.69726e-07
-7.17857e-07
-3.83163e-07
1.2497e-06
-1.32339e-06
-3.98367e-07
1.45252e-06
-1.90258e-06
-4.04934e-07
1.45074e-06
-2.30843e-06
-4.34528e-07
1.26652e-06
-2.37768e-06
-4.89963e-07
8.70704e-07
-1.9939e-06
-5.43099e-07
2.86714e-07
-1.19934e-06
-5.35115e-07
-3.25323e-07
-3.31317e-07
-3.9753e-07
-6.08141e-07
-8.67273e-08
-2.48048e-07
-6.00649e-07
-5.23863e-07
1.12477e-06
-1.824e-06
-7.6215e-07
2.32682e-06
-3.23007e-06
-8.06857e-07
2.70339e-06
-4.48731e-06
-8.18488e-07
2.53869e-06
-5.28033e-06
-8.60283e-07
1.90226e-06
-5.30957e-06
-9.34163e-07
7.99963e-07
-4.39351e-06
-9.96258e-07
-6.17149e-07
-2.6669e-06
-9.52701e-07
-1.87864e-06
-8.21899e-07
-7.19626e-07
-2.13117e-06
-2.35887e-07
-7.87143e-07
-8.98371e-07
-5.34841e-07
1.16864e-06
-2.65115e-06
-8.11432e-07
2.58356e-06
-4.59989e-06
-8.66978e-07
2.97371e-06
-6.26634e-06
-8.76729e-07
2.61147e-06
-7.23119e-06
-9.08759e-07
1.58474e-06
-7.14685e-06
-9.65402e-07
-2.53321e-08
-5.80562e-06
-9.96082e-07
-1.99813e-06
-3.45668e-06
-9.33821e-07
-3.53798e-06
-1.03771e-06
-7.13398e-07
-3.50401e-06
-2.7496e-07
-1.22946e-06
-1.0981e-06
-3.29412e-07
1.08981e-06
-3.20539e-06
-5.09877e-07
2.53615e-06
-5.49978e-06
-5.46917e-07
2.88087e-06
-7.40096e-06
-5.51262e-07
2.35482e-06
-8.43178e-06
-5.65595e-07
1.05792e-06
-8.21607e-06
-5.91742e-07
-8.99903e-07
-6.57153e-06
-5.9896e-07
-3.13804e-06
-3.83287e-06
-5.55247e-07
-4.75328e-06
-1.10263e-06
-4.27546e-07
-4.43006e-06
-1.77412e-07
-1.50887e-06
-1.1982e-06
-5.82306e-13
1.02449e-06
-3.48354e-06
-5.23077e-13
2.45832e-06
-5.9461e-06
-3.3589e-13
2.7658e-06
-7.9523e-06
-2.6456e-13
2.15008e-06
-9.00018e-06
-2.0407e-13
7.21147e-07
-8.70176e-06
-1.60384e-13
-1.39086e-06
-6.90005e-06
-1.37928e-13
-3.73558e-06
-3.9763e-06
-9.93253e-14
-5.35352e-06
-1.11351e-06
-5.53604e-14
-4.86775e-06
-4.01128e-14
-1.63568e-06
-1.1982e-06
3.29411e-07
1.02449e-06
-3.48354e-06
5.09876e-07
2.45832e-06
-5.9461e-06
5.46916e-07
2.7658e-06
-7.9523e-06
5.51261e-07
2.15008e-06
-9.00018e-06
5.65595e-07
7.21147e-07
-8.70176e-06
5.91742e-07
-1.39086e-06
-6.90005e-06
5.9896e-07
-3.73558e-06
-3.9763e-06
5.55247e-07
-5.35352e-06
-1.11351e-06
4.27546e-07
-4.86775e-06
1.77412e-07
-1.63568e-06
-1.0981e-06
5.3484e-07
1.08981e-06
-3.20539e-06
8.11431e-07
2.53615e-06
-5.49978e-06
8.66977e-07
2.88087e-06
-7.40096e-06
8.76728e-07
2.35482e-06
-8.43178e-06
9.08759e-07
1.05792e-06
-8.21607e-06
9.65401e-07
-8.99903e-07
-6.57153e-06
9.96082e-07
-3.13804e-06
-3.83287e-06
9.3382e-07
-4.75328e-06
-1.10263e-06
7.13398e-07
-4.43006e-06
2.7496e-07
-1.50887e-06
-8.9837e-07
5.23861e-07
1.16864e-06
-2.65115e-06
7.62148e-07
2.58356e-06
-4.59989e-06
8.06856e-07
2.97371e-06
-6.26634e-06
8.18487e-07
2.61147e-06
-7.23119e-06
8.60283e-07
1.58474e-06
-7.14685e-06
9.34163e-07
-2.53318e-08
-5.80562e-06
9.96257e-07
-1.99813e-06
-3.45668e-06
9.52701e-07
-3.53798e-06
-1.03771e-06
7.19626e-07
-3.50401e-06
2.35887e-07
-1.22946e-06
-6.00648e-07
2.85635e-07
1.12477e-06
-1.824e-06
3.83162e-07
2.32682e-06
-3.23007e-06
3.98366e-07
2.70339e-06
-4.48731e-06
4.04933e-07
2.53869e-06
-5.28033e-06
4.34528e-07
1.90226e-06
-5.30957e-06
4.89963e-07
7.99964e-07
-4.39351e-06
5.43099e-07
-6.17149e-07
-2.6669e-06
5.35115e-07
-1.87864e-06
-8.21899e-07
3.9753e-07
-2.13117e-06
8.67273e-08
-7.87143e-07
-2.17637e-07
6.69729e-07
-7.17855e-07
1.2497e-06
-1.32339e-06
1.45252e-06
-1.90258e-06
1.45074e-06
-2.30843e-06
1.26652e-06
-2.37768e-06
8.70704e-07
-1.9939e-06
2.86714e-07
-1.19934e-06
-3.25323e-07
-3.31316e-07
-6.08141e-07
-2.48048e-07
-3.30523e-07
-4.35055e-07
1.4353e-06
-1.00075e-06
-5.85885e-07
2.50581e-06
-1.78605e-06
-5.85985e-07
2.8238e-06
-2.55381e-06
-5.39827e-07
2.75833e-06
-3.14855e-06
-5.03954e-07
2.36521e-06
-3.36411e-06
-5.03417e-07
1.58968e-06
-2.99596e-06
-5.26627e-07
4.45193e-07
-1.98264e-06
-5.23378e-07
-8.1527e-07
-6.73987e-07
-3.95021e-07
-1.52177e-06
-4.03643e-08
-8.81671e-07
-9.5735e-07
-7.59817e-07
2.40688e-06
-2.7034e-06
-1.09557e-06
4.58256e-06
-4.63443e-06
-1.10144e-06
5.14988e-06
-6.36224e-06
-1.00277e-06
4.72943e-06
-7.52998e-06
-9.09326e-07
3.47538e-06
-7.76174e-06
-8.61573e-07
1.38988e-06
-6.73471e-06
-8.47494e-07
-1.32332e-06
-4.429e-06
-8.07181e-07
-3.90054e-06
-1.58793e-06
-6.2448e-07
-4.74278e-06
-1.55471e-07
-2.25997e-06
-1.45822e-06
-7.53147e-07
2.62019e-06
-4.01952e-06
-1.12506e-06
5.17435e-06
-6.74212e-06
-1.13245e-06
5.7273e-06
-9.03882e-06
-1.01857e-06
4.92398e-06
-1.04355e-05
-8.99305e-07
2.97143e-06
-1.05095e-05
-8.15169e-07
2.19837e-09
-8.92845e-06
-7.56984e-07
-3.66965e-06
-5.76579e-06
-7.00291e-07
-6.80753e-06
-2.03139e-06
-5.57303e-07
-7.30559e-06
-1.90723e-07
-3.2256e-06
-1.79737e-06
-4.56024e-07
2.59005e-06
-4.9037e-06
-6.92918e-07
5.21035e-06
-8.11945e-06
-6.96863e-07
5.66104e-06
-1.07191e-05
-6.20688e-07
4.55656e-06
-1.21729e-05
-5.36631e-07
2.14903e-06
-1.20516e-05
-4.68838e-07
-1.3675e-06
-1.00792e-05
-4.1987e-07
-5.44759e-06
-6.40657e-06
-3.82598e-07
-8.74356e-06
-2.20558e-06
-3.12099e-07
-8.87626e-06
-1.23611e-07
-3.78157e-06
-1.96688e-06
-4.16322e-13
2.53535e-06
-5.34402e-06
-3.73328e-13
5.14254e-06
-8.79315e-06
-1.95846e-13
5.51806e-06
-1.15179e-05
-1.32728e-13
4.25409e-06
-1.29665e-05
-6.86905e-14
1.63319e-06
-1.27248e-05
-5.25381e-14
-2.10146e-06
-1.05541e-05
-5.45992e-14
-6.32609e-06
-6.65224e-06
-4.115e-14
-9.638e-06
-2.26043e-06
-2.7443e-14
-9.57165e-06
-2.12469e-14
-4.01972e-06
-1.96688e-06
4.56023e-07
2.53535e-06
-5.34402e-06
6.92917e-07
5.14254e-06
-8.79315e-06
6.96863e-07
5.51806e-06
-1.15179e-05
6.20687e-07
4.25409e-06
-1.29665e-05
5.36631e-07
1.63319e-06
-1.27248e-05
4.68838e-07
-2.10146e-06
-1.05541e-05
4.1987e-07
-6.32609e-06
-6.65224e-06
3.82598e-07
-9.638e-06
-2.26043e-06
3.12098e-07
-9.57165e-06
1.23611e-07
-4.01972e-06
-1.79737e-06
7.53146e-07
2.59005e-06
-4.9037e-06
1.12505e-06
5.21035e-06
-8.11945e-06
1.13245e-06
5.66104e-06
-1.07191e-05
1.01857e-06
4.55656e-06
-1.21729e-05
8.99304e-07
2.14903e-06
-1.20516e-05
8.15169e-07
-1.3675e-06
-1.00792e-05
7.56983e-07
-5.44759e-06
-6.40657e-06
7.00291e-07
-8.74356e-06
-2.20558e-06
5.57303e-07
-8.87626e-06
1.90723e-07
-3.78157e-06
-1.45822e-06
7.59816e-07
2.62019e-06
-4.01952e-06
1.09557e-06
5.17435e-06
-6.74212e-06
1.10144e-06
5.7273e-06
-9.03882e-06
1.00277e-06
4.92398e-06
-1.04355e-05
9.09325e-07
2.97143e-06
-1.05095e-05
8.61573e-07
2.19845e-09
-8.92845e-06
8.47494e-07
-3.66965e-06
-5.76579e-06
8.07181e-07
-6.80753e-06
-2.03139e-06
6.2448e-07
-7.30559e-06
1.55471e-07
-3.2256e-06
-9.5735e-07
4.35054e-07
2.40688e-06
-2.7034e-06
5.85884e-07
4.58256e-06
-4.63443e-06
5.85984e-07
5.14988e-06
-6.36224e-06
5.39827e-07
4.72943e-06
-7.52998e-06
5.03954e-07
3.47538e-06
-7.76174e-06
5.03417e-07
1.38988e-06
-6.73471e-06
5.26626e-07
-1.32332e-06
-4.429e-06
5.23378e-07
-3.90054e-06
-1.58793e-06
3.95021e-07
-4.74278e-06
4.03644e-08
-2.25997e-06
-3.30522e-07
1.4353e-06
-1.00075e-06
2.50582e-06
-1.78605e-06
2.8238e-06
-2.55381e-06
2.75833e-06
-3.14855e-06
2.36521e-06
-3.36411e-06
1.58968e-06
-2.99596e-06
4.45193e-07
-1.98264e-06
-8.1527e-07
-6.73987e-07
-1.52177e-06
-8.81671e-07
-4.12381e-07
-5.64401e-07
2.41209e-06
-1.19482e-06
-7.37117e-07
4.02537e-06
-2.10522e-06
-6.81008e-07
4.41521e-06
-3.05193e-06
-5.30813e-07
4.23586e-06
-3.90989e-06
-3.7568e-07
3.59884e-06
-4.43966e-06
-2.75714e-07
2.39517e-06
-4.29776e-06
-2.55766e-07
5.59064e-07
-3.18547e-06
-3.08141e-07
-1.61943e-06
-1.31166e-06
-2.95442e-07
-3.10013e-06
9.70213e-10
-2.1943e-06
-1.23362e-06
-9.60309e-07
4.03641e-06
-3.36827e-06
-1.33378e-06
7.31388e-06
-5.69493e-06
-1.22082e-06
8.01635e-06
-7.84999e-06
-9.07607e-07
7.26128e-06
-9.5078e-06
-5.64686e-07
5.32219e-06
-1.02355e-05
-3.05651e-07
2.14753e-06
-9.49027e-06
-1.90753e-07
-2.13356e-06
-6.85916e-06
-2.46008e-07
-6.59379e-06
-2.84869e-06
-3.03057e-07
-8.74563e-06
-4.79795e-08
-5.05971e-06
-1.89658e-06
-9.34155e-07
4.49062e-06
-5.06959e-06
-1.33717e-06
8.35075e-06
-8.36886e-06
-1.21076e-06
9.01652e-06
-1.12002e-05
-8.61029e-07
7.70871e-06
-1.31339e-05
-4.67669e-07
4.80809e-06
-1.36845e-05
-1.46618e-07
3.93849e-07
-1.23492e-05
6.88437e-09
-5.20262e-06
-8.74277e-06
-4.66446e-08
-1.06133e-05
-3.57779e-06
-1.67172e-07
-1.26065e-05
-6.52103e-08
-6.78616e-06
-2.3437e-06
-5.58764e-07
4.55836e-06
-6.2006e-06
-8.11035e-07
8.54111e-06
-1.008e-05
-7.27714e-07
9.05742e-06
-1.32274e-05
-5.00513e-07
7.34337e-06
-1.51727e-05
-2.42984e-07
3.86971e-06
-1.54892e-05
-2.90825e-08
-1.16857e-06
-1.37226e-05
7.20476e-08
-7.27932e-06
-9.58251e-06
3.61237e-08
-1.29664e-05
-3.8723e-06
-5.87543e-08
-1.46949e-05
-4.12393e-08
-7.67784e-06
-2.56474e-06
-2.94954e-13
4.54133e-06
-6.75471e-06
-2.42745e-13
8.52146e-06
-1.08962e-05
-1.06467e-13
8.93188e-06
-1.41546e-05
-5.81184e-14
7.01191e-06
-1.60553e-05
-3.10974e-14
3.29093e-06
-1.6217e-05
-4.37636e-14
-1.96883e-06
-1.4245e-05
-5.41048e-14
-8.22603e-06
-9.88709e-06
-5.71977e-14
-1.39598e-05
-3.97334e-06
-6.09814e-14
-1.55442e-05
-4.60058e-14
-8.0343e-06
-2.56474e-06
5.58763e-07
4.54133e-06
-6.75471e-06
8.11035e-07
8.52146e-06
-1.08962e-05
7.27714e-07
8.93188e-06
-1.41546e-05
5.00513e-07
7.01191e-06
-1.60553e-05
2.42984e-07
3.29093e-06
-1.6217e-05
2.90825e-08
-1.96883e-06
-1.4245e-05
-7.20477e-08
-8.22603e-06
-9.88709e-06
-3.61238e-08
-1.39598e-05
-3.97334e-06
5.87542e-08
-1.55442e-05
4.12392e-08
-8.0343e-06
-2.3437e-06
9.34154e-07
4.55836e-06
-6.2006e-06
1.33717e-06
8.54111e-06
-1.008e-05
1.21076e-06
9.05742e-06
-1.32274e-05
8.61029e-07
7.34337e-06
-1.51727e-05
4.67668e-07
3.86971e-06
-1.54892e-05
1.46618e-07
-1.16857e-06
-1.37226e-05
-6.88462e-09
-7.27932e-06
-9.58251e-06
4.66444e-08
-1.29664e-05
-3.8723e-06
1.67172e-07
-1.46949e-05
6.52102e-08
-7.67784e-06
-1.89658e-06
9.60309e-07
4.49062e-06
-5.06959e-06
1.33378e-06
8.35076e-06
-8.36886e-06
1.22082e-06
9.01652e-06
-1.12002e-05
9.07606e-07
7.70871e-06
-1.31339e-05
5.64686e-07
4.80809e-06
-1.36845e-05
3.05651e-07
3.93849e-07
-1.23492e-05
1.90753e-07
-5.20262e-06
-8.74277e-06
2.46008e-07
-1.06133e-05
-3.57779e-06
3.03057e-07
-1.26065e-05
4.79797e-08
-6.78616e-06
-1.23362e-06
5.644e-07
4.03641e-06
-3.36827e-06
7.37116e-07
7.31388e-06
-5.69493e-06
6.81007e-07
8.01635e-06
-7.84999e-06
5.30813e-07
7.26128e-06
-9.50779e-06
3.7568e-07
5.32219e-06
-1.02355e-05
2.75713e-07
2.14753e-06
-9.49027e-06
2.55766e-07
-2.13356e-06
-6.85916e-06
3.08141e-07
-6.59379e-06
-2.84869e-06
2.95442e-07
-8.74563e-06
-9.70151e-10
-5.05971e-06
-4.12381e-07
2.41209e-06
-1.19482e-06
4.02537e-06
-2.10522e-06
4.41521e-06
-3.05193e-06
4.23586e-06
-3.90989e-06
3.59884e-06
-4.43966e-06
2.39517e-06
-4.29776e-06
5.59065e-07
-3.18547e-06
-1.61943e-06
-1.31166e-06
-3.10013e-06
-2.1943e-06
-5.02148e-07
-6.62555e-07
3.57679e-06
-1.33866e-06
-8.208e-07
5.68268e-06
-2.2927e-06
-6.57044e-07
6.02629e-06
-3.37212e-06
-3.35785e-07
5.65106e-06
-4.54359e-06
3.11414e-08
4.73916e-06
-5.57056e-06
3.11133e-07
3.11101e-06
-5.94185e-06
4.10206e-07
5.20147e-07
-4.97367e-06
2.52661e-07
-2.84027e-06
-2.46463e-06
6.6424e-09
-5.6158e-06
1.06431e-08
-4.66958e-06
-1.46572e-06
-1.10351e-06
5.94308e-06
-3.83194e-06
-1.44921e-06
1.03085e-05
-6.36375e-06
-1.12702e-06
1.10181e-05
-8.82357e-06
-4.79935e-07
9.86525e-06
-1.10032e-05
2.44706e-07
7.28829e-06
-1.24823e-05
8.26664e-07
3.11107e-06
-1.24792e-05
1.06106e-06
-2.78754e-06
-1.00051e-05
7.958e-07
-9.61097e-06
-4.8569e-06
2.49943e-07
-1.41372e-05
1.39271e-08
-9.91989e-06
-2.22436e-06
-1.05591e-06
6.66739e-06
-5.75548e-06
-1.42402e-06
1.18567e-05
-9.34068e-06
-1.07579e-06
1.25505e-05
-1.24928e-05
-3.78473e-07
1.07594e-05
-1.49198e-05
3.94639e-07
7.08508e-06
-1.61883e-05
1.00663e-06
1.48242e-06
-1.55974e-05
1.24111e-06
-5.97361e-06
-1.2195e-05
9.52672e-07
-1.41725e-05
-5.84851e-06
3.63559e-07
-1.90666e-05
2.05552e-08
-1.26413e-05
-2.72395e-06
-6.24582e-07
6.85098e-06
-6.99901e-06
-8.51899e-07
1.2244e-05
-1.11708e-05
-6.29314e-07
1.27827e-05
-1.4579e-05
-1.87637e-07
1.05608e-05
-1.69276e-05
2.97183e-07
6.31577e-06
-1.78631e-05
6.76086e-07
9.74008e-08
-1.6854e-05
8.01741e-07
-7.84905e-06
-1.30211e-05
6.09558e-07
-1.64562e-05
-6.21919e-06
2.42578e-07
-2.13759e-05
1.61548e-08
-1.38926e-05
-2.96514e-06
-1.70125e-13
6.88189e-06
-7.59106e-06
-1.24046e-13
1.22955e-05
-1.20092e-05
-3.94013e-14
1.27208e-05
-1.54759e-05
-1.55321e-14
1.02909e-05
-1.77124e-05
-1.55606e-14
5.82466e-06
-1.84545e-05
-5.10815e-14
-5.50719e-07
-1.72569e-05
-8.43298e-14
-8.62186e-06
-1.3285e-05
-1.06714e-13
-1.73222e-05
-6.34724e-06
-9.48902e-14
-2.22393e-05
-5.44237e-14
-1.43654e-05
-2.96514e-06
6.24581e-07
6.88189e-06
-7.59106e-06
8.51899e-07
1.22955e-05
-1.20092e-05
6.29314e-07
1.27208e-05
-1.54759e-05
1.87637e-07
1.02909e-05
-1.77124e-05
-2.97184e-07
5.82466e-06
-1.84545e-05
-6.76086e-07
-5.50719e-07
-1.72569e-05
-8.01741e-07
-8.62186e-06
-1.3285e-05
-6.09558e-07
-1.73222e-05
-6.34724e-06
-2.42578e-07
-2.22393e-05
-1.61549e-08
-1.43654e-05
-2.72395e-06
1.05591e-06
6.85098e-06
-6.99901e-06
1.42402e-06
1.2244e-05
-1.11708e-05
1.07579e-06
1.27827e-05
-1.4579e-05
3.78473e-07
1.05608e-05
-1.69276e-05
-3.94639e-07
6.31577e-06
-1.78631e-05
-1.00663e-06
9.74006e-08
-1.6854e-05
-1.24111e-06
-7.84905e-06
-1.30211e-05
-9.52672e-07
-1.64562e-05
-6.21919e-06
-3.63559e-07
-2.13759e-05
-2.05553e-08
-1.38926e-05
-2.22436e-06
1.1035e-06
6.66739e-06
-5.75548e-06
1.44921e-06
1.18567e-05
-9.34068e-06
1.12702e-06
1.25505e-05
-1.24928e-05
4.79934e-07
1.07594e-05
-1.49198e-05
-2.44707e-07
7.08508e-06
-1.61883e-05
-8.26664e-07
1.48242e-06
-1.55974e-05
-1.06106e-06
-5.97361e-06
-1.2195e-05
-7.958e-07
-1.41725e-05
-5.84851e-06
-2.49943e-07
-1.90666e-05
-1.39271e-08
-1.26413e-05
-1.46572e-06
6.62555e-07
5.94308e-06
-3.83194e-06
8.208e-07
1.03085e-05
-6.36375e-06
6.57044e-07
1.10181e-05
-8.82357e-06
3.35784e-07
9.86525e-06
-1.10032e-05
-3.11415e-08
7.28829e-06
-1.24823e-05
-3.11133e-07
3.11107e-06
-1.24792e-05
-4.10206e-07
-2.78754e-06
-1.00051e-05
-2.52661e-07
-9.61097e-06
-4.8569e-06
-6.64402e-09
-1.41372e-05
-1.06429e-08
-9.91989e-06
-5.02148e-07
3.57679e-06
-1.33866e-06
5.68269e-06
-2.2927e-06
6.0263e-06
-3.37212e-06
5.65106e-06
-4.54359e-06
4.73916e-06
-5.57056e-06
3.11101e-06
-5.94185e-06
5.20147e-07
-4.97367e-06
-2.84027e-06
-2.46463e-06
-5.6158e-06
-4.66958e-06
-6.91344e-07
-7.32933e-07
5.00107e-06
-1.50111e-06
-8.33529e-07
7.32598e-06
-2.33165e-06
-5.06358e-07
7.3632e-06
-3.38768e-06
6.35897e-08
6.6435e-06
-4.79607e-06
7.12599e-07
5.43496e-06
-6.42016e-06
1.27938e-06
3.45571e-06
-7.62496e-06
1.53802e-06
1.8692e-07
-7.24969e-06
1.23376e-06
-4.44929e-06
-4.29059e-06
4.95206e-07
-9.07011e-06
-6.46474e-08
-8.89552e-06
-1.74065e-06
-1.18871e-06
8.13951e-06
-4.11653e-06
-1.44278e-06
1.32936e-05
-6.48508e-06
-8.33105e-07
1.37134e-05
-8.86589e-06
2.39687e-07
1.207e-05
-1.12949e-05
1.44105e-06
8.98881e-06
-1.34826e-05
2.43214e-06
4.14604e-06
-1.45719e-05
2.81731e-06
-2.97749e-06
-1.30099e-05
2.24608e-06
-1.21853e-05
-7.4251e-06
9.50402e-07
-2.01772e-05
-6.01311e-08
-1.73495e-05
-2.49955e-06
-1.11578e-06
9.09401e-06
-6.02962e-06
-1.39223e-06
1.53362e-05
-9.38298e-06
-7.60929e-07
1.58317e-05
-1.23225e-05
3.42364e-07
1.35963e-05
-1.48114e-05
1.54236e-06
9.47264e-06
-1.66154e-05
2.47262e-06
3.24591e-06
-1.70681e-05
2.74148e-06
-5.44498e-06
-1.47796e-05
2.10344e-06
-1.63184e-05
-8.36383e-06
8.68825e-07
-2.54009e-05
-3.18384e-08
-2.10334e-05
-2.97498e-06
-6.51731e-07
9.36191e-06
-7.20672e-06
-8.2218e-07
1.59057e-05
-1.1056e-05
-4.30104e-07
1.63011e-05
-1.41099e-05
2.4841e-07
1.37087e-05
-1.63473e-05
9.67464e-07
9.12805e-06
-1.76977e-05
1.49169e-06
2.42875e-06
-1.77263e-05
1.60636e-06
-6.68529e-06
-1.52057e-05
1.19191e-06
-1.80652e-05
-8.65392e-06
4.77749e-07
-2.75366e-05
-1.0339e-08
-2.2568e-05
-3.19564e-06
-9.76722e-14
9.4258e-06
-7.74344e-06
-6.32677e-14
1.60211e-05
-1.17788e-05
-3.35524e-14
1.6326e-05
-1.48084e-05
-2.68276e-14
1.35689e-05
-1.68546e-05
-4.89497e-14
8.83829e-06
-1.7952e-05
-9.83871e-14
2.03838e-06
-1.78282e-05
-1.31562e-13
-7.13931e-06
-1.52921e-05
-1.52503e-13
-1.86663e-05
-8.75915e-06
-1.13961e-13
-2.82946e-05
-6.8663e-14
-2.31349e-05
-3.19564e-06
6.5173e-07
9.4258e-06
-7.74344e-06
8.2218e-07
1.60211e-05
-1.17788e-05
4.30104e-07
1.6326e-05
-1.48084e-05
-2.4841e-07
1.35689e-05
-1.68546e-05
-9.67464e-07
8.83829e-06
-1.7952e-05
-1.49169e-06
2.03838e-06
-1.78282e-05
-1.60636e-06
-7.13931e-06
-1.52921e-05
-1.19191e-06
-1.86663e-05
-8.75915e-06
-4.7775e-07
-2.82946e-05
1.03389e-08
-2.31349e-05
-2.97498e-06
1.11578e-06
9.36191e-06
-7.20672e-06
1.39223e-06
1.59057e-05
-1.1056e-05
7.60929e-07
1.63011e-05
-1.41099e-05
-3.42365e-07
1.37087e-05
-1.63473e-05
-1.54236e-06
9.12805e-06
-1.76977e-05
-2.47262e-06
2.42875e-06
-1.77263e-05
-2.74148e-06
-6.68529e-06
-1.52057e-05
-2.10344e-06
-1.80652e-05
-8.65392e-06
-8.68826e-07
-2.75366e-05
3.18384e-08
-2.2568e-05
-2.49955e-06
1.18871e-06
9.09401e-06
-6.02962e-06
1.44278e-06
1.53362e-05
-9.38298e-06
8.33104e-07
1.58317e-05
-1.23225e-05
-2.39687e-07
1.35963e-05
-1.48114e-05
-1.44105e-06
9.47264e-06
-1.66154e-05
-2.43214e-06
3.24591e-06
-1.70681e-05
-2.81731e-06
-5.44498e-06
-1.47796e-05
-2.24608e-06
-1.63184e-05
-8.36383e-06
-9.50402e-07
-2.54009e-05
6.01309e-08
-2.10334e-05
-1.74065e-06
7.32933e-07
8.13951e-06
-4.11653e-06
8.33528e-07
1.32936e-05
-6.48508e-06
5.06358e-07
1.37134e-05
-8.86589e-06
-6.35898e-08
1.207e-05
-1.12949e-05
-7.12599e-07
8.98881e-06
-1.34826e-05
-1.27938e-06
4.14604e-06
-1.45719e-05
-1.53802e-06
-2.97749e-06
-1.30099e-05
-1.23376e-06
-1.21853e-05
-7.4251e-06
-4.95205e-07
-2.01772e-05
6.46474e-08
-1.73495e-05
-6.91343e-07
5.00107e-06
-1.50111e-06
7.32598e-06
-2.33165e-06
7.3632e-06
-3.38768e-06
6.6435e-06
-4.79607e-06
5.43496e-06
-6.42016e-06
3.45572e-06
-7.62495e-06
1.8692e-07
-7.24969e-06
-4.44929e-06
-4.29059e-06
-9.07011e-06
-8.89552e-06
-1.22212e-06
-8.29233e-07
7.05242e-06
-1.82068e-06
-8.39231e-07
8.76377e-06
-2.17186e-06
-3.10446e-07
8.02482e-06
-2.81244e-06
5.38251e-07
6.74582e-06
-4.12422e-06
1.52073e-06
5.22601e-06
-6.17625e-06
2.45162e-06
3.05613e-06
-8.42654e-06
2.9822e-06
-5.4499e-07
-9.23421e-06
2.58974e-06
-6.23137e-06
-6.50948e-06
1.20056e-06
-1.29954e-05
-2.96949e-07
-1.51081e-05
-2.365e-06
-1.27363e-06
1.09489e-05
-4.35559e-06
-1.40872e-06
1.58537e-05
-5.86016e-06
-4.92866e-07
1.54004e-05
-7.33176e-06
9.86579e-07
1.30932e-05
-9.1712e-06
2.63402e-06
9.71497e-06
-1.14233e-05
4.03433e-06
4.81546e-06
-1.34936e-05
4.62285e-06
-2.54787e-06
-1.36455e-05
3.75941e-06
-1.3203e-05
-9.2856e-06
1.5696e-06
-2.49062e-05
-4.23638e-07
-2.65084e-05
-3.00685e-06
-1.15677e-06
1.1984e-05
-5.99315e-06
-1.32508e-06
1.82389e-05
-8.2442e-06
-4.24692e-07
1.80145e-05
-9.96079e-06
1.0159e-06
1.52835e-05
-1.14819e-05
2.55239e-06
1.10754e-05
-1.29776e-05
3.73629e-06
5.03967e-06
-1.41945e-05
4.0568e-06
-3.66212e-06
-1.38502e-05
3.08584e-06
-1.5989e-05
-9.46061e-06
1.15254e-06
-2.93734e-05
-3.45654e-07
-3.0572e-05
-3.37336e-06
-6.62763e-07
1.22413e-05
-6.92092e-06
-7.69979e-07
1.88982e-05
-9.50137e-06
-2.2806e-07
1.8685e-05
-1.11521e-05
6.30249e-07
1.57451e-05
-1.22387e-05
1.51512e-06
1.12519e-05
-1.31273e-05
2.14817e-06
4.90549e-06
-1.38808e-05
2.24685e-06
-4.12188e-06
-1.35019e-05
1.62888e-06
-1.69872e-05
-9.41464e-06
5.62446e-07
-3.10337e-05
-1.77077e-07
-3.21513e-05
-3.53298e-06
-9.05006e-14
1.2296e-05
-7.31661e-06
-7.62471e-14
1.90347e-05
-9.99836e-06
-7.72577e-14
1.87797e-05
-1.15471e-05
-7.73865e-14
1.57479e-05
-1.23769e-05
-1.03114e-13
1.11832e-05
-1.29889e-05
-1.56163e-13
4.79855e-06
-1.36095e-05
-1.78198e-13
-4.27192e-06
-1.3326e-05
-1.679e-13
-1.73208e-05
-9.42531e-06
-9.99336e-14
-3.16328e-05
-3.34243e-14
-3.27373e-05
-3.53298e-06
6.62763e-07
1.2296e-05
-7.31661e-06
7.69979e-07
1.90347e-05
-9.99836e-06
2.2806e-07
1.87797e-05
-1.15471e-05
-6.30249e-07
1.57479e-05
-1.23769e-05
-1.51512e-06
1.11832e-05
-1.29889e-05
-2.14817e-06
4.79855e-06
-1.36095e-05
-2.24685e-06
-4.27192e-06
-1.3326e-05
-1.62888e-06
-1.73208e-05
-9.42531e-06
-5.62446e-07
-3.16328e-05
1.77077e-07
-3.27373e-05
-3.37336e-06
1.15677e-06
1.22413e-05
-6.92092e-06
1.32508e-06
1.88982e-05
-9.50137e-06
4.24691e-07
1.8685e-05
-1.11521e-05
-1.0159e-06
1.57451e-05
-1.22387e-05
-2.55239e-06
1.12519e-05
-1.31273e-05
-3.73629e-06
4.90549e-06
-1.38808e-05
-4.0568e-06
-4.12188e-06
-1.35019e-05
-3.08584e-06
-1.69872e-05
-9.41464e-06
-1.15254e-06
-3.10337e-05
3.45654e-07
-3.21513e-05
-3.00685e-06
1.27363e-06
1.1984e-05
-5.99315e-06
1.40872e-06
1.82389e-05
-8.2442e-06
4.92866e-07
1.80145e-05
-9.96079e-06
-9.8658e-07
1.52835e-05
-1.14819e-05
-2.63402e-06
1.10754e-05
-1.29776e-05
-4.03433e-06
5.03967e-06
-1.41945e-05
-4.62285e-06
-3.66212e-06
-1.38502e-05
-3.75941e-06
-1.5989e-05
-9.46061e-06
-1.5696e-06
-2.93734e-05
4.23638e-07
-3.0572e-05
-2.365e-06
8.29233e-07
1.09489e-05
-4.35559e-06
8.39231e-07
1.58537e-05
-5.86016e-06
3.10446e-07
1.54004e-05
-7.33176e-06
-5.38251e-07
1.30932e-05
-9.1712e-06
-1.52073e-06
9.71497e-06
-1.14233e-05
-2.45162e-06
4.81546e-06
-1.34936e-05
-2.9822e-06
-2.54787e-06
-1.36455e-05
-2.58974e-06
-1.3203e-05
-9.2856e-06
-1.20056e-06
-2.49062e-05
2.96949e-07
-2.65084e-05
-1.22212e-06
7.05242e-06
-1.82068e-06
8.76377e-06
-2.17186e-06
8.02482e-06
-2.81244e-06
6.74582e-06
-4.12422e-06
5.22601e-06
-6.17625e-06
3.05613e-06
-8.42654e-06
-5.4499e-07
-9.23421e-06
-6.23137e-06
-6.50948e-06
-1.29954e-05
-1.51081e-05
-2.46848e-06
-1.08247e-06
1.06034e-05
-2.21997e-06
-1.07413e-06
9.5894e-06
-1.26872e-06
-3.8525e-07
7.45881e-06
-7.1729e-07
6.82377e-07
5.51202e-06
-1.2088e-06
1.91346e-06
3.80406e-06
-3.07159e-06
3.14596e-06
1.77295e-06
-6.14413e-06
4.02867e-06
-1.50112e-06
-8.68141e-06
3.68285e-06
-7.37694e-06
-7.67066e-06
1.6196e-06
-1.56257e-05
-1.01556e-06
-2.17632e-05
-4.00739e-06
-1.52898e-06
1.54028e-05
-4.64268e-06
-1.65595e-06
1.70708e-05
-3.83781e-06
-5.81985e-07
1.47923e-05
-2.87769e-06
1.08014e-06
1.17353e-05
-2.61784e-06
2.93625e-06
8.43232e-06
-3.54248e-06
4.5947e-06
4.29136e-06
-5.71109e-06
5.49814e-06
-1.84873e-06
-8.03241e-06
4.59838e-06
-1.17972e-05
-7.43586e-06
1.61975e-06
-2.55029e-05
-1.3844e-06
-3.35754e-05
-4.61488e-06
-1.30598e-06
1.63759e-05
-5.9514e-06
-1.46908e-06
1.93885e-05
-5.47837e-06
-4.76551e-07
1.74361e-05
-4.30083e-06
1.03708e-06
1.41491e-05
-3.23955e-06
2.64402e-06
1.03064e-05
-2.93326e-06
3.94817e-06
5.37991e-06
-3.83199e-06
4.46345e-06
-1.7287e-06
-5.74223e-06
3.45573e-06
-1.29361e-05
-5.99124e-06
1.01842e-06
-2.85231e-05
-1.02231e-06
-3.69253e-05
-4.87723e-06
-7.21179e-07
1.65337e-05
-6.57303e-06
-8.24255e-07
1.99492e-05
-6.2368e-06
-2.4702e-07
1.81192e-05
-4.86203e-06
6.20782e-07
1.47866e-05
-3.28983e-06
1.50902e-06
1.08147e-05
-2.31398e-06
2.18007e-06
5.69775e-06
-2.66783e-06
2.37348e-06
-1.67806e-06
-4.6216e-06
1.74637e-06
-1.33241e-05
-5.48223e-06
4.62095e-07
-2.96168e-05
-4.89776e-07
-3.8166e-05
-4.9707e-06
-1.22608e-13
1.65455e-05
-6.79807e-06
-1.27901e-13
2.00379e-05
-6.48496e-06
-1.25599e-13
1.82196e-05
-4.98705e-06
-1.18273e-13
1.48708e-05
-3.18028e-06
-1.4376e-13
1.08854e-05
-1.95752e-06
-1.79342e-13
5.75585e-06
-2.18114e-06
-1.69126e-13
-1.67482e-06
-4.27334e-06
-1.19554e-13
-1.34822e-05
-5.40539e-06
-3.70884e-14
-3.00387e-05
6.56235e-14
-3.86324e-05
-4.9707e-06
7.21178e-07
1.65455e-05
-6.79807e-06
8.24255e-07
2.00379e-05
-6.48496e-06
2.4702e-07
1.82196e-05
-4.98705e-06
-6.20782e-07
1.48708e-05
-3.18028e-06
-1.50902e-06
1.08854e-05
-1.95752e-06
-2.18007e-06
5.75585e-06
-2.18114e-06
-2.37348e-06
-1.67482e-06
-4.27334e-06
-1.74637e-06
-1.34822e-05
-5.40539e-06
-4.62095e-07
-3.00387e-05
4.89776e-07
-3.86324e-05
-4.87723e-06
1.30598e-06
1.65337e-05
-6.57303e-06
1.46908e-06
1.99492e-05
-6.2368e-06
4.7655e-07
1.81192e-05
-4.86203e-06
-1.03708e-06
1.47866e-05
-3.28983e-06
-2.64402e-06
1.08147e-05
-2.31398e-06
-3.94817e-06
5.69775e-06
-2.66783e-06
-4.46345e-06
-1.67806e-06
-4.6216e-06
-3.45573e-06
-1.33241e-05
-5.48223e-06
-1.01842e-06
-2.96168e-05
1.02231e-06
-3.8166e-05
-4.61488e-06
1.52897e-06
1.63759e-05
-5.9514e-06
1.65595e-06
1.93885e-05
-5.47837e-06
5.81985e-07
1.74361e-05
-4.30083e-06
-1.08014e-06
1.41491e-05
-3.23955e-06
-2.93625e-06
1.03064e-05
-2.93326e-06
-4.5947e-06
5.37991e-06
-3.83199e-06
-5.49814e-06
-1.7287e-06
-5.74223e-06
-4.59838e-06
-1.29361e-05
-5.99124e-06
-1.61975e-06
-2.85231e-05
1.3844e-06
-3.69253e-05
-4.00739e-06
1.08247e-06
1.54028e-05
-4.64268e-06
1.07413e-06
1.70708e-05
-3.83781e-06
3.8525e-07
1.47923e-05
-2.87769e-06
-6.82377e-07
1.17353e-05
-2.61784e-06
-1.91346e-06
8.43233e-06
-3.54248e-06
-3.14596e-06
4.29137e-06
-5.71109e-06
-4.02867e-06
-1.84873e-06
-8.03241e-06
-3.68285e-06
-1.17972e-05
-7.43586e-06
-1.6196e-06
-2.55029e-05
1.01556e-06
-3.35754e-05
-2.46848e-06
1.06034e-05
-2.21997e-06
9.5894e-06
-1.26872e-06
7.45881e-06
-7.1729e-07
5.51202e-06
-1.2088e-06
3.80406e-06
-3.07159e-06
1.77295e-06
-6.14413e-06
-1.50112e-06
-8.68141e-06
-7.37694e-06
-7.67066e-06
-1.56257e-05
-2.17632e-05
-2.66758e-06
-1.85785e-06
1.51288e-05
5.24737e-07
-1.98982e-06
8.3869e-06
4.56641e-06
-1.19837e-06
4.61551e-06
7.42861e-06
-1.42035e-07
2.79185e-06
8.61228e-06
1.09926e-06
1.52114e-06
7.67868e-06
2.38299e-06
3.23561e-07
4.36403e-06
3.54864e-06
-1.73512e-06
-6.12792e-07
3.4469e-06
-5.84702e-06
-3.46904e-06
8.98089e-07
-1.36676e-05
-2.72498e-06
-2.25072e-05
-4.76163e-06
-2.23275e-06
2.05393e-05
-7.52976e-07
-2.67754e-06
1.37499e-05
5.18e-06
-1.76493e-06
9.42588e-06
1.03304e-05
-2.89796e-07
6.7327e-06
1.40042e-05
1.37752e-06
4.4803e-06
1.5519e-05
3.00914e-06
2.15036e-06
1.40693e-05
4.26715e-06
-1.11746e-06
9.33689e-06
3.83095e-06
-7.44892e-06
3.10115e-06
6.85567e-07
-1.90546e-05
-2.76842e-06
-3.04308e-05
-5.52219e-06
-1.71004e-06
2.13754e-05
-1.70514e-06
-2.16929e-06
1.50632e-05
4.38678e-06
-1.43614e-06
1.10154e-05
1.0219e-05
-2.2942e-07
8.25648e-06
1.50309e-05
1.11359e-06
5.75838e-06
1.80273e-05
2.35323e-06
3.03941e-06
1.7962e-05
3.19179e-06
-5.88081e-07
1.37385e-05
2.74025e-06
-7.62191e-06
5.72709e-06
4.24989e-07
-2.02511e-05
-1.73555e-06
-3.22311e-05
-5.71637e-06
-8.88438e-07
2.14285e-05
-2.03779e-06
-1.15321e-06
1.52545e-05
4.05682e-06
-7.51214e-07
1.13397e-05
1.01013e-05
-1.02885e-07
8.61561e-06
1.53288e-05
6.07262e-07