/*--------------------------------*- C++ -*----------------------------------*\
  =========                 |
  \\      /  F ield         | OpenFOAM: The Open Source CFD Toolbox
   \\    /   O peration     | Website:  https://openfoam.org
    \\  /    A nd           | Version:  9
     \\/     M anipulation  |
\*---------------------------------------------------------------------------*/
FoamFile
{
    format      ascii;
    class       volVectorField;
    location    "0.8";
    object      U;
}
// * * * * * * * * * * * * * * * * * * * * * * * * * * * * * * * * * * * * * //

dimensions      [0 1 -1 0 0 0 0];

internalField   nonuniform List<vector> 
1000
(
(3.00045e-05 -0.000512017 0.00034079)
(-0.0014018 -0.000480355 0.00107694)
(-0.00457699 -0.000437752 0.0014372)
(-0.00797228 -0.000547964 0.00159561)
(-0.0108869 -0.000856907 0.00156465)
(-0.0123563 -0.00132511 0.00125247)
(-0.0114385 -0.0017887 0.000647115)
(-0.00787839 -0.00195637 -2.15179e-05)
(-0.00262655 -0.00155717 -0.000219458)
(0.000111648 -0.000466216 0.000378359)
(-0.000150902 -0.00181944 0.000596686)
(-0.00344 -0.00225168 0.00230965)
(-0.0101588 -0.00233758 0.0030698)
(-0.0170683 -0.00267389 0.00317005)
(-0.0226704 -0.0034385 0.00268129)
(-0.0251739 -0.00452815 0.00150638)
(-0.0229432 -0.00552028 -0.000213908)
(-0.0156802 -0.00571078 -0.00174607)
(-0.0054531 -0.00451894 -0.0017668)
(-6.81022e-06 -0.00167074 0.000235186)
(-0.000351367 -0.00273141 0.000285418)
(-0.00500015 -0.00384324 0.00235943)
(-0.0140935 -0.00416966 0.00325984)
(-0.0232082 -0.00462179 0.00321464)
(-0.0303176 -0.00548116 0.00229107)
(-0.03313 -0.00662743 0.000418808)
(-0.0296407 -0.00751804 -0.00209584)
(-0.0196914 -0.00744749 -0.00401532)
(-0.00628784 -0.00587322 -0.00347397)
(0.000351403 -0.00249568 -4.64917e-05)
(-0.000498068 -0.00231905 -0.000132555)
(-0.00607393 -0.00340652 0.00199995)
(-0.0167377 -0.00374232 0.00291955)
(-0.027251 -0.00410599 0.00274284)
(-0.0352297 -0.00473713 0.00150813)
(-0.0380118 -0.0055403 -0.000826311)
(-0.033433 -0.00607903 -0.00381168)
(-0.0216125 -0.00589283 -0.0058411)
(-0.00623351 -0.00464372 -0.00472855)
(0.000829136 -0.00209002 -0.00024185)
(-0.000577845 -0.000896491 -0.000393662)
(-0.0066296 -0.00133851 0.00172259)
(-0.0180819 -0.00147683 0.00263315)
(-0.0292759 -0.00161245 0.00238192)
(-0.0376394 -0.00183642 0.00098537)
(-0.0403387 -0.00211201 -0.00158184)
(-0.0351461 -0.00228906 -0.00476329)
(-0.0223566 -0.00219895 -0.00679434)
(-0.00603714 -0.0017338 -0.00534842)
(0.00113122 -0.000800013 -0.000330232)
(-0.000577846 0.000896477 -0.000393662)
(-0.0066296 0.0013385 0.00172259)
(-0.0180819 0.00147682 0.00263315)
(-0.0292759 0.00161245 0.00238192)
(-0.0376394 0.00183642 0.00098537)
(-0.0403387 0.002112 -0.00158184)
(-0.0351461 0.00228906 -0.00476329)
(-0.0223566 0.00219895 -0.00679434)
(-0.00603713 0.0017338 -0.00534842)
(0.00113122 0.000800011 -0.000330232)
(-0.00049807 0.00231904 -0.000132555)
(-0.00607393 0.00340651 0.00199995)
(-0.0167376 0.00374231 0.00291955)
(-0.027251 0.00410598 0.00274284)
(-0.0352297 0.00473713 0.00150813)
(-0.0380118 0.0055403 -0.000826311)
(-0.033433 0.00607903 -0.00381168)
(-0.0216125 0.00589283 -0.0058411)
(-0.00623351 0.00464371 -0.00472855)
(0.000829137 0.00209001 -0.000241849)
(-0.000351368 0.00273139 0.000285418)
(-0.00500014 0.00384323 0.00235943)
(-0.0140935 0.00416965 0.00325984)
(-0.0232082 0.00462178 0.00321464)
(-0.0303176 0.00548115 0.00229107)
(-0.03313 0.00662743 0.000418807)
(-0.0296407 0.00751803 -0.00209584)
(-0.0196914 0.00744749 -0.00401532)
(-0.00628783 0.00587322 -0.00347397)
(0.000351403 0.00249567 -4.6491e-05)
(-0.0001509 0.00181941 0.000596689)
(-0.00343999 0.00225166 0.00230966)
(-0.0101588 0.00233758 0.0030698)
(-0.0170683 0.00267388 0.00317005)
(-0.0226704 0.0034385 0.00268129)
(-0.0251739 0.00452814 0.00150638)
(-0.0229432 0.00552027 -0.000213908)
(-0.0156802 0.00571078 -0.00174606)
(-0.0054531 0.00451894 -0.0017668)
(-6.8097e-06 0.00167074 0.000235187)
(3.00186e-05 0.000512002 0.000340802)
(-0.00140177 0.000480352 0.00107694)
(-0.00457697 0.000437749 0.0014372)
(-0.00797227 0.000547962 0.00159561)
(-0.0108869 0.000856904 0.00156465)
(-0.0123563 0.00132511 0.00125247)
(-0.0114385 0.0017887 0.000647116)
(-0.00787839 0.00195637 -2.1517e-05)
(-0.00262655 0.00155716 -0.000219458)
(0.000111648 0.000466215 0.00037836)
(-0.00062483 -0.00146192 0.00346479)
(-0.00410112 -0.00188532 0.00695579)
(-0.0101506 -0.00192427 0.0083266)
(-0.0163885 -0.00195453 0.00852832)
(-0.0216293 -0.00213094 0.00765998)
(-0.024297 -0.00247463 0.00548789)
(-0.0228331 -0.0028299 0.00213057)
(-0.0165885 -0.0028462 -0.00134716)
(-0.00680964 -0.00209092 -0.00276814)
(-0.00065535 -0.000319043 -0.000507918)
(-0.00195991 -0.00433416 0.00579305)
(-0.0108508 -0.00610892 0.0132215)
(-0.0252736 -0.00640868 0.0158785)
(-0.0393889 -0.00651547 0.0153074)
(-0.0503291 -0.00693733 0.0118697)
(-0.0549801 -0.00770093 0.00548288)
(-0.0506479 -0.00839925 -0.00290704)
(-0.036562 -0.00815323 -0.01017)
(-0.0157824 -0.00608607 -0.0111017)
(-0.00214833 -0.00164883 -0.00290493)
(-0.00304202 -0.005786 0.00560072)
(-0.0160442 -0.00871804 0.0144045)
(-0.0364305 -0.00930416 0.0173105)
(-0.0556351 -0.00942798 0.0156866)
(-0.0696688 -0.00982504 0.00993853)
(-0.07466 -0.0105157 0.000262011)
(-0.067526 -0.0109828 -0.0114712)
(-0.0478214 -0.0103634 -0.0203839)
(-0.0201292 -0.00787193 -0.0192256)
(-0.00252505 -0.00285746 -0.00517153)
(-0.00376321 -0.00468624 0.00472813)
(-0.0195487 -0.00727153 0.0137336)
(-0.0438782 -0.00780572 0.0164686)
(-0.0661977 -0.00787563 0.013938)
(-0.0818141 -0.00809651 0.00652419)
(-0.0864529 -0.00848714 -0.00528548)
(-0.0770075 -0.00862105 -0.0188942)
(-0.0535829 -0.00800998 -0.02825)
(-0.0218133 -0.00615284 -0.0249841)
(-0.00236129 -0.00248932 -0.00667781)
(-0.00412139 -0.00177702 0.00410923)
(-0.0213127 -0.00278915 0.0130328)
(-0.0476092 -0.00299924 0.0155922)
(-0.0714002 -0.00301631 0.0125535)
(-0.0876519 -0.00307565 0.00428547)
(-0.091925 -0.00318717 -0.00853084)
(-0.0811955 -0.00319586 -0.0229054)
(-0.0559334 -0.00294941 -0.0322642)
(-0.0223106 -0.00228042 -0.0277916)
(-0.00217066 -0.00096609 -0.00737882)
(-0.00412139 0.00177701 0.00410923)
(-0.0213127 0.00278914 0.0130328)
(-0.0476092 0.00299924 0.0155922)
(-0.0714002 0.00301631 0.0125535)
(-0.0876519 0.00307565 0.00428548)
(-0.091925 0.00318717 -0.00853084)
(-0.0811955 0.00319586 -0.0229054)
(-0.0559334 0.00294941 -0.0322642)
(-0.0223106 0.00228042 -0.0277916)
(-0.00217066 0.000966089 -0.00737882)
(-0.00376321 0.00468623 0.00472813)
(-0.0195487 0.00727152 0.0137337)
(-0.0438781 0.00780571 0.0164686)
(-0.0661977 0.00787562 0.013938)
(-0.0818141 0.00809651 0.00652419)
(-0.0864529 0.00848714 -0.00528548)
(-0.0770075 0.00862104 -0.0188942)
(-0.0535828 0.00800997 -0.02825)
(-0.0218133 0.00615284 -0.0249841)
(-0.00236129 0.00248932 -0.00667781)
(-0.00304202 0.00578599 0.00560073)
(-0.0160442 0.00871802 0.0144045)
(-0.0364305 0.00930415 0.0173105)
(-0.0556351 0.00942798 0.0156866)
(-0.0696688 0.00982504 0.00993854)
(-0.07466 0.0105157 0.000262013)
(-0.067526 0.0109828 -0.0114712)
(-0.0478214 0.0103634 -0.0203839)
(-0.0201292 0.00787193 -0.0192256)
(-0.00252504 0.00285746 -0.00517153)
(-0.00195991 0.00433414 0.00579306)
(-0.0108508 0.00610891 0.0132215)
(-0.0252736 0.00640868 0.0158785)
(-0.0393889 0.00651546 0.0153074)
(-0.0503291 0.00693733 0.0118697)
(-0.0549801 0.00770093 0.00548288)
(-0.0506479 0.00839924 -0.00290704)
(-0.036562 0.00815323 -0.01017)
(-0.0157824 0.00608607 -0.0111017)
(-0.00214833 0.00164883 -0.00290493)
(-0.000624825 0.00146191 0.00346481)
(-0.0041011 0.00188532 0.00695581)
(-0.0101506 0.00192427 0.00832661)
(-0.0163885 0.00195453 0.00852832)
(-0.0216293 0.00213094 0.00765998)
(-0.024297 0.00247463 0.0054879)
(-0.0228331 0.00282989 0.00213057)
(-0.0165885 0.0028462 -0.00134716)
(-0.00680964 0.00209092 -0.00276813)
(-0.000655349 0.000319043 -0.000507916)
(-0.00109825 -0.00227685 0.0101357)
(-0.00597548 -0.0030164 0.0181686)
(-0.0138748 -0.00299853 0.020799)
(-0.0219897 -0.00277718 0.0205618)
(-0.0291754 -0.00263797 0.0178041)
(-0.0336443 -0.0027247 0.0121382)
(-0.0331902 -0.0029626 0.00381941)
(-0.0260554 -0.00300522 -0.00497747)
(-0.0125858 -0.00222545 -0.00940836)
(-0.00218181 -5.17482e-05 -0.00465372)
(-0.00346854 -0.00644199 0.016921)
(-0.0167447 -0.00908433 0.0333497)
(-0.0367889 -0.00911916 0.0381285)
(-0.0560407 -0.00837505 0.035444)
(-0.0713383 -0.00774888 0.0263217)
(-0.0790808 -0.00759248 0.0108462)
(-0.0755362 -0.0077368 -0.00899232)
(-0.0581807 -0.00750326 -0.0268829)
(-0.0286651 -0.00567766 -0.0312908)
(-0.00546287 -0.000951629 -0.0130995)
(-0.00541251 -0.00825198 0.018033)
(-0.025291 -0.0122652 0.0373236)
(-0.0542663 -0.0123694 0.0421384)
(-0.080746 -0.0111943 0.0366202)
(-0.100212 -0.00999738 0.0220865)
(-0.108311 -0.00921693 -0.000622813)
(-0.101095 -0.00874347 -0.0275713)
(-0.0763048 -0.00815862 -0.0493733)
(-0.0369141 -0.00640902 -0.0502296)
(-0.00675607 -0.00196814 -0.0196389)
(-0.00672719 -0.00652433 0.0173792)
(-0.0310983 -0.00993768 0.0371175)
(-0.0659377 -0.0100099 0.0412198)
(-0.096658 -0.00893421 0.0333785)
(-0.117944 -0.00775002 0.0151181)
(-0.125245 -0.00681577 -0.0119413)
(-0.114918 -0.00614051 -0.0425578)
(-0.0853684 -0.00561606 -0.0654331)
(-0.0404934 -0.00456071 -0.0626965)
(-0.00702963 -0.00172824 -0.0236734)
(-0.00738163 -0.00244532 0.0167211)
(-0.0340093 -0.00375974 0.0363141)
(-0.0717304 -0.00378014 0.0398636)
(-0.104362 -0.00334491 0.0307562)
(-0.126225 -0.00285119 0.0106617)
(-0.132802 -0.00243784 -0.018313)
(-0.120767 -0.00213867 -0.050289)
(-0.0889681 -0.00194189 -0.0732229)
(-0.0417476 -0.00161128 -0.0684907)
(-0.0070228 -0.000669246 -0.0254795)
(-0.00738163 0.00244531 0.0167211)
(-0.0340093 0.00375973 0.0363141)
(-0.0717304 0.00378014 0.0398636)
(-0.104362 0.0033449 0.0307562)
(-0.126225 0.00285119 0.0106617)
(-0.132802 0.00243784 -0.018313)
(-0.120767 0.00213867 -0.050289)
(-0.0889681 0.00194189 -0.0732229)
(-0.0417476 0.00161128 -0.0684907)
(-0.0070228 0.000669245 -0.0254795)
(-0.00672719 0.00652432 0.0173792)
(-0.0310983 0.00993768 0.0371175)
(-0.0659377 0.0100099 0.0412198)
(-0.096658 0.00893421 0.0333785)
(-0.117944 0.00775002 0.0151181)
(-0.125245 0.00681576 -0.0119413)
(-0.114918 0.00614051 -0.0425578)
(-0.0853684 0.00561606 -0.0654331)
(-0.0404934 0.00456071 -0.0626965)
(-0.00702963 0.00172823 -0.0236734)
(-0.00541251 0.00825197 0.018033)
(-0.025291 0.0122652 0.0373236)
(-0.0542663 0.0123694 0.0421384)
(-0.080746 0.0111943 0.0366202)
(-0.100212 0.00999738 0.0220865)
(-0.108311 0.00921693 -0.000622811)
(-0.101095 0.00874347 -0.0275713)
(-0.0763048 0.00815861 -0.0493733)
(-0.0369141 0.00640902 -0.0502296)
(-0.00675607 0.00196814 -0.0196389)
(-0.00346854 0.00644198 0.016921)
(-0.0167447 0.00908433 0.0333497)
(-0.0367889 0.00911915 0.0381286)
(-0.0560407 0.00837505 0.035444)
(-0.0713383 0.00774887 0.0263217)
(-0.0790808 0.00759248 0.0108462)
(-0.0755362 0.00773679 -0.00899232)
(-0.0581807 0.00750326 -0.0268829)
(-0.0286651 0.00567766 -0.0312908)
(-0.00546287 0.000951628 -0.0130995)
(-0.00109825 0.00227685 0.0101358)
(-0.00597547 0.0030164 0.0181686)
(-0.0138748 0.00299853 0.020799)
(-0.0219897 0.00277718 0.0205618)
(-0.0291754 0.00263797 0.0178041)
(-0.0336443 0.0027247 0.0121382)
(-0.0331902 0.0029626 0.00381941)
(-0.0260554 0.00300522 -0.00497747)
(-0.0125858 0.00222545 -0.00940835)
(-0.00218181 5.17487e-05 -0.00465372)
(-0.00146412 -0.00298557 0.0189381)
(-0.00729979 -0.00387976 0.0322847)
(-0.0163974 -0.00359821 0.0359348)
(-0.025967 -0.00287493 0.0348225)
(-0.0353629 -0.00216028 0.0297405)
(-0.0428794 -0.00178081 0.0199394)
(-0.0454972 -0.0018699 0.00531217)
(-0.039415 -0.00224303 -0.0112259)
(-0.0225753 -0.00198038 -0.0213235)
(-0.00548265 0.000131164 -0.0136476)
(-0.00467229 -0.00824936 0.031673)
(-0.0212673 -0.0112706 0.0587277)
(-0.0454333 -0.010396 0.0652143)
(-0.0687468 -0.00797517 0.0594785)
(-0.0886391 -0.0053989 0.0435907)
(-0.101585 -0.00358274 0.0174446)
(-0.102555 -0.00294697 -0.0169141)
(-0.0856789 -0.00349462 -0.0506156)
(-0.0486569 -0.00352707 -0.0636818)
(-0.0117714 -0.00016892 -0.0330852)
(-0.00730427 -0.0103138 0.0349)
(-0.0324909 -0.0147157 0.0666705)
(-0.067852 -0.0134149 0.0728516)
(-0.0998676 -0.00973049 0.0623261)
(-0.124644 -0.00560873 0.0379283)
(-0.138039 -0.00231196 0.000726749)
(-0.13506 -0.000721977 -0.0448353)
(-0.110013 -0.0012433 -0.0858406)
(-0.0614558 -0.0023265 -0.0956423)
(-0.0144542 -0.000669324 -0.0459241)
(-0.00908219 -0.00801902 0.0350199)
(-0.0400767 -0.0116684 0.0676758)
(-0.0826267 -0.0104992 0.0725329)
(-0.119375 -0.00726206 0.0583159)
(-0.145731 -0.00358544 0.0285101)
(-0.157798 -0.000551697 -0.0146522)
(-0.151234 0.000892144 -0.0651653)
(-0.121136 0.000371775 -0.108244)
(-0.0668787 -0.000963916 -0.114395)
(-0.0153828 -0.000570077 -0.0530418)
(-0.00996069 -0.00297935 0.0346244)
(-0.0438338 -0.00436566 0.0671709)
(-0.0898239 -0.00389615 0.0710796)
(-0.128539 -0.00262134 0.0549347)
(-0.155134 -0.00117207 0.0226567)
(-0.166038 2.40346e-05 -0.0228353)
(-0.157518 0.000588928 -0.0749169)
(-0.125217 0.000357648 -0.118249)
(-0.0687989 -0.000222712 -0.122436)
(-0.0156616 -0.0002146 -0.0560104)
(-0.00996069 0.00297935 0.0346244)
(-0.0438338 0.00436566 0.0671709)
(-0.0898239 0.00389615 0.0710796)
(-0.128539 0.00262134 0.0549347)
(-0.155134 0.00117207 0.0226567)
(-0.166038 -2.40351e-05 -0.0228353)
(-0.157518 -0.000588929 -0.0749169)
(-0.125217 -0.000357649 -0.118249)
(-0.0687989 0.00022271 -0.122436)
(-0.0156616 0.000214599 -0.0560104)
(-0.00908219 0.00801901 0.0350199)
(-0.0400767 0.0116684 0.0676758)
(-0.0826267 0.0104992 0.0725329)
(-0.119375 0.00726206 0.0583159)
(-0.145731 0.00358544 0.0285101)
(-0.157798 0.000551696 -0.0146522)
(-0.151234 -0.000892145 -0.0651653)
(-0.121136 -0.000371776 -0.108244)
(-0.0668787 0.000963914 -0.114395)
(-0.0153828 0.000570076 -0.0530418)
(-0.00730427 0.0103138 0.0349)
(-0.0324909 0.0147157 0.0666705)
(-0.067852 0.0134149 0.0728516)
(-0.0998676 0.00973048 0.0623261)
(-0.124644 0.00560873 0.0379283)
(-0.138039 0.00231196 0.000726749)
(-0.13506 0.000721976 -0.0448353)
(-0.110013 0.0012433 -0.0858406)
(-0.0614558 0.0023265 -0.0956423)
(-0.0144542 0.000669324 -0.0459241)
(-0.00467229 0.00824936 0.031673)
(-0.0212673 0.0112706 0.0587277)
(-0.0454333 0.010396 0.0652144)
(-0.0687467 0.00797517 0.0594785)
(-0.0886391 0.0053989 0.0435907)
(-0.101585 0.00358273 0.0174446)
(-0.102555 0.00294697 -0.0169141)
(-0.0856789 0.00349462 -0.0506156)
(-0.0486569 0.00352707 -0.0636818)
(-0.0117714 0.000168921 -0.0330852)
(-0.00146412 0.00298557 0.0189381)
(-0.00729978 0.00387976 0.0322847)
(-0.0163974 0.00359821 0.0359348)
(-0.025967 0.00287493 0.0348225)
(-0.0353629 0.00216028 0.0297405)
(-0.0428794 0.00178081 0.0199394)
(-0.0454972 0.0018699 0.00531217)
(-0.039415 0.00224303 -0.0112259)
(-0.0225753 0.00198038 -0.0213235)
(-0.00548264 -0.000131164 -0.0136476)
(-0.00199333 -0.00353528 0.0296593)
(-0.00854498 -0.00438533 0.0483997)
(-0.0179973 -0.00356354 0.0523442)
(-0.0282529 -0.00197186 0.0497521)
(-0.0397806 -0.000251306 0.0420397)
(-0.0515115 0.00105735 0.0278385)
(-0.0596854 0.00138446 0.0058233)
(-0.0576297 0.000428037 -0.0213092)
(-0.0391639 -0.000751772 -0.0414205)
(-0.012075 3.80151e-05 -0.0315545)
(-0.00587537 -0.00958383 0.049462)
(-0.0247861 -0.0124242 0.0877868)
(-0.0510806 -0.00986435 0.0951514)
(-0.0766555 -0.00472707 0.0857067)
(-0.100532 0.00100221 0.0629232)
(-0.120131 0.00562275 0.0258153)
(-0.129321 0.00747187 -0.025148)
(-0.117979 0.00528061 -0.0804524)
(-0.0779078 0.0010127 -0.111179)
(-0.0231784 0.000112507 -0.0696646)
(-0.00890852 -0.011738 0.0553365)
(-0.0375938 -0.0157957 0.100599)
(-0.0763034 -0.0120995 0.10754)
(-0.111053 -0.00462323 0.091848)
(-0.139704 0.0037522 0.058344)
(-0.159374 0.0104825 0.0074163)
(-0.164313 0.0131892 -0.0583224)
(-0.14492 0.0101575 -0.125256)
(-0.0941434 0.00372815 -0.156156)
(-0.0275778 0.000208057 -0.0913612)
(-0.0109026 -0.00899053 0.0565929)
(-0.046051 -0.0122895 0.103415)
(-0.0924303 -0.0091176 0.108679)
(-0.13162 -0.00278469 0.088538)
(-0.160991 0.00422309 0.0489799)
(-0.178252 0.0096973 -0.00828126)
(-0.179032 0.0115829 -0.0794745)
(-0.155089 0.0087957 -0.149818)
(-0.100214 0.00344553 -0.179061)
(-0.0292573 0.000228483 -0.102037)
(-0.0118654 -0.00331348 0.0566614)
(-0.0501421 -0.00455148 0.103536)
(-0.100045 -0.00331401 0.107619)
(-0.140825 -0.00087012 0.0852721)
(-0.169761 0.00180805 0.0432134)
(-0.18523 0.00385712 -0.0161431)
(-0.183871 0.00447169 -0.0886836)
(-0.158225 0.00334456 -0.159682)
(-0.102258 0.00132906 -0.188004)
(-0.0298772 9.95142e-05 -0.106185)
(-0.0118654 0.00331347 0.0566614)
(-0.0501421 0.00455147 0.103536)
(-0.100045 0.00331401 0.107619)
(-0.140825 0.000870119 0.0852721)
(-0.169761 -0.00180805 0.0432134)
(-0.18523 -0.00385712 -0.0161431)
(-0.183871 -0.0044717 -0.0886836)
(-0.158225 -0.00334456 -0.159682)
(-0.102258 -0.00132907 -0.188004)
(-0.0298772 -9.95153e-05 -0.106185)
(-0.0109026 0.00899053 0.0565929)
(-0.046051 0.0122895 0.103415)
(-0.0924303 0.0091176 0.108679)
(-0.13162 0.00278469 0.088538)
(-0.160991 -0.00422309 0.0489799)
(-0.178252 -0.0096973 -0.00828126)
(-0.179032 -0.0115829 -0.0794745)
(-0.155089 -0.0087957 -0.149818)
(-0.100214 -0.00344553 -0.179061)
(-0.0292573 -0.000228484 -0.102037)
(-0.00890852 0.011738 0.0553365)
(-0.0375938 0.0157957 0.100599)
(-0.0763034 0.0120995 0.10754)
(-0.111053 0.00462323 0.091848)
(-0.139704 -0.0037522 0.058344)
(-0.159374 -0.0104825 0.0074163)
(-0.164313 -0.0131892 -0.0583225)
(-0.14492 -0.0101575 -0.125256)
(-0.0941434 -0.00372815 -0.156156)
(-0.0275778 -0.000208057 -0.0913612)
(-0.00587537 0.00958383 0.049462)
(-0.0247861 0.0124242 0.0877868)
(-0.0510806 0.00986435 0.0951514)
(-0.0766555 0.00472706 0.0857067)
(-0.100532 -0.00100221 0.0629232)
(-0.120131 -0.00562275 0.0258154)
(-0.129321 -0.00747187 -0.025148)
(-0.117979 -0.00528061 -0.0804524)
(-0.0779078 -0.0010127 -0.111179)
(-0.0231784 -0.000112506 -0.0696646)
(-0.00199333 0.00353528 0.0296594)
(-0.00854498 0.00438533 0.0483997)
(-0.0179973 0.00356354 0.0523442)
(-0.0282529 0.00197186 0.0497521)
(-0.0397806 0.000251306 0.0420397)
(-0.0515115 -0.00105735 0.0278385)
(-0.0596854 -0.00138446 0.0058233)
(-0.0576297 -0.000428036 -0.0213092)
(-0.0391639 0.000751776 -0.0414205)
(-0.012075 -3.80144e-05 -0.0315545)
(-0.00331149 -0.00395756 0.0424841)
(-0.0107054 -0.00452048 0.0651676)
(-0.0190288 -0.00283015 0.0676772)
(-0.0281691 6.44205e-05 0.0625254)
(-0.0404931 0.00339402 0.0519368)
(-0.0564511 0.00634334 0.0336477)
(-0.0723168 0.00775295 0.00422959)
(-0.0783884 0.00625552 -0.0358831)
(-0.0626573 0.00249985 -0.071575)
(-0.0228834 -0.000321497 -0.0639276)
(-0.00781543 -0.0104615 0.0699649)
(-0.0281654 -0.0125141 0.118198)
(-0.0532615 -0.00749955 0.124604)
(-0.077058 0.00131677 0.110801)
(-0.101392 0.0113585 0.0820019)
(-0.125886 0.0199925 0.0357619)
(-0.144663 0.0238501 -0.0308447)
(-0.144225 0.0194095 -0.111566)
(-0.110472 0.00819556 -0.171552)
(-0.0388633 -0.000802445 -0.130766)
(-0.0108578 -0.0125037 0.0784796)
(-0.0409907 -0.0155492 0.136201)
(-0.0782295 -0.00869488 0.142697)
(-0.110163 0.00339573 0.122347)
(-0.137615 0.0167476 0.0823201)
(-0.160269 0.0274091 0.0214923)
(-0.17337 0.0310048 -0.0616548)
(-0.165098 0.0242132 -0.158105)
(-0.124349 0.0100839 -0.224947)
(-0.0436266 -0.000485907 -0.163444)
(-0.012729 -0.00941721 0.0808359)
(-0.0490775 -0.0118915 0.141035)
(-0.0934031 -0.00625198 0.146068)
(-0.128569 0.0035756 0.121503)
(-0.155086 0.0140946 0.076085)
(-0.1737 0.0218988 0.00985804)
(-0.181784 0.0236771 -0.0783839)
(-0.16969 0.0176497 -0.179595)
(-0.128017 0.00706692 -0.248422)
(-0.0453963 -0.000191079 -0.177892)
(-0.013593 -0.00344009 0.0813575)
(-0.0528453 -0.00436295 0.141896)
(-0.100248 -0.00221253 0.145821)
(-0.136251 0.001497 0.119279)
(-0.161448 0.00538829 0.0719346)
(-0.17748 0.00813585 0.00437227)
(-0.18324 0.00858432 -0.0848269)
(-0.170211 0.00622368 -0.187286)
(-0.12913 0.00243344 -0.256904)
(-0.0461502 -3.59975e-05 -0.183277)
(-0.013593 0.00344009 0.0813575)
(-0.0528453 0.00436295 0.141896)
(-0.100248 0.00221252 0.145821)
(-0.136251 -0.001497 0.119279)
(-0.161448 -0.00538829 0.0719346)
(-0.17748 -0.00813585 0.00437227)
(-0.18324 -0.00858433 -0.0848269)
(-0.170211 -0.00622368 -0.187286)
(-0.12913 -0.00243344 -0.256904)
(-0.0461502 3.59961e-05 -0.183277)
(-0.012729 0.00941721 0.0808359)
(-0.0490775 0.0118915 0.141035)
(-0.0934031 0.00625197 0.146068)
(-0.128569 -0.00357561 0.121503)
(-0.155086 -0.0140946 0.076085)
(-0.1737 -0.0218988 0.00985804)
(-0.181784 -0.0236771 -0.0783839)
(-0.16969 -0.0176497 -0.179595)
(-0.128017 -0.00706692 -0.248422)
(-0.0453963 0.000191079 -0.177892)
(-0.0108578 0.0125037 0.0784796)
(-0.0409907 0.0155492 0.136201)
(-0.0782295 0.00869488 0.142697)
(-0.110163 -0.00339574 0.122347)
(-0.137615 -0.0167476 0.0823201)
(-0.160269 -0.0274091 0.0214923)
(-0.17337 -0.0310048 -0.0616548)
(-0.165098 -0.0242132 -0.158105)
(-0.124349 -0.0100839 -0.224947)
(-0.0436266 0.000485907 -0.163444)
(-0.00781543 0.0104615 0.0699649)
(-0.0281654 0.0125141 0.118198)
(-0.0532615 0.00749955 0.124604)
(-0.077058 -0.00131677 0.110801)
(-0.101392 -0.0113585 0.0820019)
(-0.125886 -0.0199925 0.0357619)
(-0.144663 -0.0238501 -0.0308447)
(-0.144225 -0.0194095 -0.111566)
(-0.110472 -0.00819556 -0.171552)
(-0.0388633 0.000802444 -0.130766)
(-0.00331149 0.00395756 0.0424841)
(-0.0107054 0.00452048 0.0651677)
(-0.0190288 0.00283015 0.0676772)
(-0.0281691 -6.44207e-05 0.0625254)
(-0.0404931 -0.00339402 0.0519368)
(-0.0564511 -0.00634334 0.0336477)
(-0.0723168 -0.00775295 0.00422959)
(-0.0783884 -0.00625552 -0.0358831)
(-0.0626573 -0.00249985 -0.071575)
(-0.0228834 0.000321497 -0.0639276)
(-0.00704974 -0.00459185 0.0594569)
(-0.0161768 -0.00470378 0.0810521)
(-0.020062 -0.00187608 0.0786106)
(-0.0241129 0.00262942 0.0689692)
(-0.0333652 0.00793553 0.0552082)
(-0.0507442 0.0131092 0.0338905)
(-0.0743778 0.0163302 -0.00107884)
(-0.0924506 0.014642 -0.05436)
(-0.0877126 0.00728519 -0.110746)
(-0.036215 -0.00137543 -0.117441)
(-0.0126129 -0.0115012 0.0948442)
(-0.0342115 -0.0123974 0.146936)
(-0.0519927 -0.00454245 0.14818)
(-0.0660301 0.008148 0.128757)
(-0.0821172 0.022649 0.0957187)
(-0.103523 0.0357522 0.0450987)
(-0.127617 0.0424268 -0.0304989)
(-0.140422 0.0359625 -0.134127)
(-0.12709 0.0159174 -0.233172)
(-0.0500219 -0.00438298 -0.221151)
(-0.0153259 -0.0131397 0.10512)
(-0.0452762 -0.0149309 0.169333)
(-0.073224 -0.00492731 0.171922)
(-0.0926099 0.0112507 0.147219)
(-0.108319 0.0288178 0.104518)
(-0.123952 0.0429572 0.0409409)
(-0.139009 0.0477051 -0.0501484)
(-0.142961 0.0372809 -0.171673)
(-0.128407 0.0144535 -0.285668)
(-0.0509327 -0.00425218 -0.263296)
(-0.0167563 -0.00963745 0.107914)
(-0.0516748 -0.0111801 0.175614)
(-0.0851345 -0.00332168 0.177617)
(-0.105981 0.00924272 0.149974)
(-0.118915 0.022321 0.103539)
(-0.128711 0.0318634 0.0361775)
(-0.137588 0.0336127 -0.0588639)
(-0.138047 0.0246225 -0.186022)
(-0.12632 0.00865457 -0.30593)
(-0.0513923 -0.00268595 -0.280345)
(-0.0173594 -0.00347533 0.108575)
(-0.0544841 -0.00405809 0.17694)
(-0.090149 -0.00112937 0.178224)
(-0.110981 0.00350654 0.149266)
(-0.12187 0.00821141 0.101771)
(-0.128589 0.0114417 0.0338681)
(-0.135066 0.0117264 -0.0617449)
(-0.135136 0.00828367 -0.190707)
(-0.125707 0.00276373 -0.313055)
(-0.0519141 -0.000872312 -0.286642)
(-0.0173594 0.00347533 0.108575)
(-0.0544841 0.00405809 0.17694)
(-0.090149 0.00112937 0.178224)
(-0.110981 -0.00350654 0.149266)
(-0.12187 -0.00821141 0.101771)
(-0.128589 -0.0114417 0.0338681)
(-0.135066 -0.0117264 -0.0617449)
(-0.135136 -0.00828367 -0.190707)
(-0.125707 -0.00276374 -0.313055)
(-0.0519141 0.00087231 -0.286642)
(-0.0167563 0.00963745 0.107914)
(-0.0516748 0.0111801 0.175614)
(-0.0851345 0.00332168 0.177617)
(-0.105981 -0.00924272 0.149974)
(-0.118915 -0.022321 0.103539)
(-0.128711 -0.0318634 0.0361775)
(-0.137588 -0.0336127 -0.0588639)
(-0.138047 -0.0246225 -0.186022)
(-0.12632 -0.00865457 -0.30593)
(-0.0513923 0.00268595 -0.280345)
(-0.0153259 0.0131397 0.10512)
(-0.0452762 0.0149309 0.169333)
(-0.073224 0.00492731 0.171922)
(-0.0926099 -0.0112507 0.147219)
(-0.108319 -0.0288178 0.104518)
(-0.123952 -0.0429572 0.0409409)
(-0.139009 -0.0477051 -0.0501484)
(-0.142961 -0.0372809 -0.171673)
(-0.128407 -0.0144535 -0.285668)
(-0.0509327 0.00425218 -0.263296)
(-0.0126129 0.0115012 0.0948442)
(-0.0342115 0.0123974 0.146936)
(-0.0519927 0.00454244 0.14818)
(-0.0660301 -0.008148 0.128757)
(-0.0821172 -0.022649 0.0957187)
(-0.103523 -0.0357522 0.0450987)
(-0.127617 -0.0424268 -0.0304989)
(-0.140422 -0.0359625 -0.134127)
(-0.12709 -0.0159174 -0.233172)
(-0.0500219 0.00438298 -0.221151)
(-0.00704974 0.00459185 0.0594569)
(-0.0161768 0.00470378 0.0810521)
(-0.020062 0.00187608 0.0786106)
(-0.0241129 -0.00262942 0.0689692)
(-0.0333652 -0.00793553 0.0552082)
(-0.0507442 -0.0131092 0.0338905)
(-0.0743778 -0.0163302 -0.00107884)
(-0.0924506 -0.014642 -0.05436)
(-0.0877126 -0.00728519 -0.110746)
(-0.036215 0.00137543 -0.117441)
(-0.016495 -0.00627533 0.0819118)
(-0.0281196 -0.0063824 0.0926551)
(-0.0177591 -0.00255727 0.0808564)
(-0.00845685 0.00342818 0.0645798)
(-0.00701824 0.010418 0.0476817)
(-0.018659 0.0176903 0.0255473)
(-0.0455249 0.0232698 -0.0111566)
(-0.076224 0.0218653 -0.0738521)
(-0.0964924 0.0102417 -0.153161)
(-0.0418419 -0.00612252 -0.196127)
(-0.025495 -0.0143925 0.122776)
(-0.0494408 -0.0151018 0.167416)
(-0.0445851 -0.00541997 0.158439)
(-0.0333891 0.00968603 0.131272)
(-0.0258473 0.0268251 0.0962466)
(-0.0285091 0.0432101 0.0485422)
(-0.0460747 0.0537645 -0.0237075)
(-0.0678148 0.0474147 -0.137142)
(-0.0948026 0.018891 -0.274898)
(-0.0358321 -0.0144825 -0.326899)
(-0.0282896 -0.0152201 0.132759)
(-0.0589078 -0.0169174 0.192426)
(-0.0607629 -0.00560896 0.186868)
(-0.0503321 0.0118854 0.156435)
(-0.0376908 0.0307972 0.114425)
(-0.0293795 0.0468146 0.0569442)
(-0.033283 0.0541757 -0.0271125)
(-0.0430936 0.0433542 -0.156961)
(-0.0743918 0.0137359 -0.31536)
(-0.0274392 -0.0126211 -0.36824)
(-0.0292993 -0.0106295 0.135016)
(-0.0632593 -0.0121047 0.199257)
(-0.0685554 -0.0036545 0.194591)
(-0.0578907 0.00917182 0.162983)
(-0.041562 0.0224613 0.119004)
(-0.0265986 0.0327013 0.0591334)
(-0.0235932 0.0359164 -0.027801)
(-0.0293257 0.0267742 -0.163066)
(-0.0659625 0.00735764 -0.329492)
(-0.0256581 -0.00747193 -0.383506)
(-0.0296171 -0.00374117 0.135446)
(-0.064875 -0.00429655 0.200647)
(-0.0713503 -0.00121935 0.195898)
(-0.0601467 0.00338773 0.163815)
(-0.0418776 0.00803284 0.119496)
(-0.0240759 0.0114128 0.0594506)
(-0.0188477 0.0121819 -0.0279423)
(-0.0242658 0.00874777 -0.165118)
(-0.064087 0.00224623 -0.33464)
(-0.0258561 -0.00235303 -0.389146)
(-0.0296171 0.00374117 0.135446)
(-0.064875 0.00429654 0.200647)
(-0.0713503 0.00121934 0.195898)
(-0.0601467 -0.00338773 0.163815)
(-0.0418776 -0.00803284 0.119496)
(-0.0240759 -0.0114128 0.0594506)
(-0.0188477 -0.0121819 -0.0279423)
(-0.0242658 -0.00874777 -0.165118)
(-0.064087 -0.00224623 -0.33464)
(-0.0258561 0.00235303 -0.389146)
(-0.0292993 0.0106295 0.135016)
(-0.0632593 0.0121047 0.199257)
(-0.0685554 0.0036545 0.194591)
(-0.0578907 -0.00917182 0.162983)
(-0.041562 -0.0224613 0.119004)
(-0.0265986 -0.0327013 0.0591334)
(-0.0235932 -0.0359164 -0.027801)
(-0.0293257 -0.0267742 -0.163066)
(-0.0659625 -0.00735764 -0.329492)
(-0.0256581 0.00747193 -0.383506)
(-0.0282896 0.0152201 0.132759)
(-0.0589078 0.0169174 0.192426)
(-0.0607629 0.00560896 0.186868)
(-0.0503321 -0.0118854 0.156435)
(-0.0376908 -0.0307972 0.114425)
(-0.0293795 -0.0468146 0.0569442)
(-0.033283 -0.0541757 -0.0271125)
(-0.0430936 -0.0433542 -0.156961)
(-0.0743918 -0.0137359 -0.31536)
(-0.0274392 0.0126211 -0.36824)
(-0.025495 0.0143925 0.122776)
(-0.0494408 0.0151018 0.167416)
(-0.0445851 0.00541996 0.158439)
(-0.0333891 -0.00968603 0.131272)
(-0.0258473 -0.0268251 0.0962466)
(-0.0285091 -0.0432101 0.0485423)
(-0.0460747 -0.0537645 -0.0237075)
(-0.0678148 -0.0474147 -0.137142)
(-0.0948026 -0.018891 -0.274898)
(-0.0358321 0.0144825 -0.326899)
(-0.016495 0.00627533 0.0819118)
(-0.0281196 0.0063824 0.0926551)
(-0.0177591 0.00255727 0.0808564)
(-0.00845685 -0.00342819 0.0645798)
(-0.00701823 -0.010418 0.0476817)
(-0.018659 -0.0176903 0.0255473)
(-0.0455249 -0.0232698 -0.0111566)
(-0.076224 -0.0218653 -0.0738521)
(-0.0964924 -0.0102417 -0.153161)
(-0.0418419 0.00612252 -0.196127)
(-0.0238344 -0.0112245 0.150182)
(-0.0202199 -0.0121068 0.0981638)
(0.0282602 -0.0074814 0.0628863)
(0.0625743 -0.00089482 0.0414945)
(0.0833137 0.00652371 0.0250114)
(0.0854578 0.0144065 0.00714931)
(0.0631177 0.0216153 -0.0214532)
(0.0255588 0.0208026 -0.0789852)
(-0.0421218 0.00506328 -0.174177)
(-0.00680602 -0.0179343 -0.259824)
(-0.0424861 -0.0230263 0.209702)
(-0.041449 -0.0261891 0.169885)
(0.0235767 -0.0167696 0.128282)
(0.079505 -0.00248429 0.0960567)
(0.124192 0.0138302 0.0663015)
(0.15206 0.0303391 0.0323953)
(0.150192 0.0445599 -0.0171013)
(0.13104 0.0425625 -0.107528)
(0.0401527 0.00991389 -0.256502)
(0.0437528 -0.0320644 -0.369654)
(-0.0477611 -0.0209514 0.219945)
(-0.0510027 -0.0259722 0.190455)
(0.0131249 -0.0171614 0.151921)
(0.0737271 -0.00278499 0.118407)
(0.127369 0.0135639 0.0848168)
(0.169197 0.0289642 0.0450241)
(0.181532 0.0401141 -0.0114614)
(0.176749 0.035359 -0.110584)
(0.0810083 0.00564047 -0.275309)
(0.0632227 -0.0228143 -0.395261)
(-0.0487879 -0.0134245 0.220978)
(-0.0537971 -0.0172624 0.194628)
(0.0090814 -0.0112827 0.157655)
(0.0709117 -0.00156204 0.124386)
(0.127618 0.00918631 0.0901883)
(0.174658 0.0188207 0.0489527)
(0.191862 0.024875 -0.00974205)
(0.191181 0.0207748 -0.111776)
(0.0911036 0.00325581 -0.281942)
(0.0662949 -0.0119835 -0.40394)
(-0.048839 -0.00453306 0.220783)
(-0.0542406 -0.0059102 0.194968)
(0.00836668 -0.0038097 0.158321)
(0.0707687 -0.000443792 0.125182)
(0.128533 0.00319725 0.091054)
(0.177146 0.00636114 0.0497237)
(0.195458 0.00819194 -0.00952235)
(0.195001 0.00668103 -0.112682)
(0.092263 0.00108895 -0.284707)
(0.0659292 -0.00356696 -0.407104)
(-0.048839 0.00453306 0.220783)
(-0.0542406 0.0059102 0.194968)
(0.00836668 0.0038097 0.158321)
(0.0707686 0.00044379 0.125182)
(0.128533 -0.00319726 0.091054)
(0.177146 -0.00636114 0.0497237)