/*--------------------------------*- C++ -*----------------------------------*\
  =========                 |
  \\      /  F ield         | OpenFOAM: The Open Source CFD Toolbox
   \\    /   O peration     | Website:  https://openfoam.org
    \\  /    A nd           | Version:  9
     \\/     M anipulation  |
\*---------------------------------------------------------------------------*/
FoamFile
{
    format      ascii;
    class       volScalarField;
    location    "0.61";
    object      p;
}
// * * * * * * * * * * * * * * * * * * * * * * * * * * * * * * * * * * * * * //

dimensions      [0 2 -2 0 0 0 0];

internalField   nonuniform List<scalar> 
1000
(
4.99087e-06
-0.000464664
-0.000121403
0.000976219
0.00288969
0.00548739
0.008314
0.0106174
0.0116986
0.0108561
0.000178826
-0.000693472
-0.000455696
0.000684441
0.00277307
0.0056615
0.00882263
0.0113425
0.0123699
0.0109869
0.000925304
-0.000211916
-1.12766e-05
0.00122576
0.00355472
0.00680293
0.0103385
0.013007
0.0137988
0.0116899
0.00172528
0.000414329
0.000602225
0.00193588
0.00448367
0.00805933
0.011859
0.0145894
0.0151344
0.0124491
0.00222542
0.000833434
0.00102055
0.00241133
0.00507951
0.00882359
0.012768
0.0155141
0.015911
0.0129209
0.00222554
0.000833527
0.00102062
0.00241138
0.00507955
0.00882361
0.012768
0.0155141
0.015911
0.0129209
0.00172562
0.000414618
0.00060245
0.00193603
0.0044838
0.00805941
0.0118591
0.0145894
0.0151345
0.0124491
0.000926035
-0.000211375
-1.08787e-05
0.00122602
0.00355495
0.00680309
0.0103386
0.0130071
0.0137988
0.01169
0.000180277
-0.000692605
-0.00045512
0.000684794
0.00277335
0.00566168
0.00882277
0.0113427
0.01237
0.0109869
8.42747e-06
-0.000463306
-0.000120651
0.000976677
0.00289003
0.00548761
0.00831417
0.0106175
0.0116987
0.0108562
0.000393954
-2.99936e-05
0.000334667
0.00131175
0.0029874
0.00530451
0.00790097
0.0101186
0.0112198
0.010101
0.000927184
3.14817e-05
0.000315405
0.00128105
0.00298825
0.00539425
0.00813201
0.0104732
0.0115356
0.00976552
0.00209618
0.000810323
0.00103057
0.00199517
0.00376951
0.00631122
0.00928852
0.0117098
0.0125731
0.0100632
0.00319364
0.00161522
0.00177951
0.00274645
0.00459637
0.00731124
0.0104486
0.0129012
0.0135639
0.0105137
0.00384298
0.0021107
0.00224381
0.00321238
0.00510513
0.00791988
0.0111426
0.0135995
0.0141436
0.0108263
0.00384307
0.00211078
0.00224387
0.00321242
0.00510517
0.00791991
0.0111426
0.0135995
0.0141437
0.0108263
0.00319393
0.00161547
0.00177972
0.0027466
0.0045965
0.00731133
0.0104487
0.0129012
0.013564
0.0105137
0.00209671
0.000810746
0.0010309
0.00199542
0.00376972
0.00631138
0.00928864
0.0117099
0.0125731
0.0100632
0.000928067
3.21303e-05
0.000315875
0.00128137
0.00298849
0.00539443
0.00813215
0.0104733
0.0115357
0.00976559
0.000395284
-2.91256e-05
0.000335227
0.00131213
0.00298767
0.00530471
0.00790113
0.0101187
0.0112199
0.0101011
-0.000935468
-0.00149344
-0.00123836
-0.000448085
0.00106355
0.00340893
0.00636823
0.00926755
0.0110268
0.00973446
-8.66156e-05
-0.00127943
-0.00110898
-0.00032657
0.00121942
0.00367999
0.00683204
0.00990205
0.0115912
0.00916225
0.00158798
-0.000167978
-0.000116415
0.000580859
0.00210841
0.0046854
0.00803752
0.011233
0.0127253
0.00926
0.00309571
0.000917789
0.000855725
0.00147066
0.00298527
0.00565331
0.00915092
0.0123969
0.0136904
0.00953162
0.00396696
0.00156698
0.00143861
0.00200558
0.00351489
0.00623147
0.009794
0.0130459
0.0142224
0.00974174
0.00396702
0.00156704
0.00143865
0.0020056
0.00351491
0.00623149
0.00979401
0.0130459
0.0142224
0.00974175
0.00309592
0.000917994
0.000855883
0.00147078
0.00298537
0.00565339
0.00915097
0.012397
0.0136904
0.00953166
0.00158835
-0.000167649
-0.000116156
0.000581061
0.00210858
0.00468552
0.00803762
0.0112331
0.0127254
0.00926005
-8.6065e-05
-0.00127896
-0.00110862
-0.000326307
0.00121963
0.00368013
0.00683215
0.00990212
0.0115912
0.00916231
-0.000934759
-0.00149287
-0.00123796
-0.000447772
0.00106377
0.0034091
0.00636835
0.00926762
0.0110269
0.00973452
-0.00436922
-0.00505337
-0.0049604
-0.00443366
-0.00311471
-0.000585528
0.00321674
0.00768131
0.0111216
0.0102329
-0.00319907
-0.00467109
-0.00466653
-0.00413075
-0.00274421
-4.49131e-05
0.00405419
0.00885153
0.0122268
0.0096156
-0.00100055
-0.00321186
-0.003427
-0.00312433
-0.00191954
0.000791464
0.00504716
0.0100993
0.0134006
0.00961779
0.000941142
-0.00182292
-0.00225018
-0.00217569
-0.00114945
0.00149884
0.00586614
0.0110404
0.0142359
0.00975579
0.00204919
-0.00100475
-0.00155605
-0.00161394
-0.000686177
0.00192682
0.00631635
0.0115199
0.0146476
0.00987317
0.00204924
-0.00100471
-0.00155602
-0.00161392
-0.000686162
0.00192683
0.00631637
0.01152
0.0146476
0.00987318
0.000941286
-0.00182277
-0.00225006
-0.0021756
-0.00114938
0.0014989
0.00586618
0.0110404
0.0142359
0.00975581
-0.00100029
-0.00321162
-0.00342681
-0.00312417
-0.00191941
0.000791557
0.00504723
0.0100994
0.0134006
0.00961783
-0.00319872
-0.00467077
-0.00466628
-0.00413056
-0.00274407
-4.48015e-05
0.00405428
0.0088516
0.0122268
0.00961565
-0.00436877
-0.00505298
-0.00496011
-0.00443341
-0.00311455
-0.000585386
0.00321684
0.00768139
0.0111217
0.010233
-0.0105945
-0.0112383
-0.0112388
-0.0110023
-0.00995373
-0.00717259
-0.00203521
0.00516942
0.0119499
0.0131443
-0.00913725
-0.0107026
-0.0108142
-0.0105871
-0.00947239
-0.00657719
-0.00113547
0.00662598
0.0135754
0.0129138
-0.00651071
-0.00898269
-0.00948718
-0.0097611
-0.00917088
-0.00659232
-0.00116154
0.00703243
0.0142902
0.0129324
-0.00423117
-0.00737454
-0.00824464
-0.00897992
-0.00884237
-0.00654661
-0.00120323
0.00720557
0.0146414
0.0129941
-0.00294584
-0.00643837
-0.00751748
-0.0085096
-0.00861495
-0.00649101
-0.00120842
0.00726264
0.0147612
0.0130305
-0.00294581
-0.00643833
-0.00751745
-0.00850958
-0.00861493
-0.006491
-0.00120841
0.00726266
0.0147612
0.0130305
-0.00423107
-0.00737441
-0.00824454
-0.00897983
-0.0088423
-0.00654656
-0.00120319
0.00720561
0.0146414
0.0129941
-0.00651052
-0.0089825
-0.00948701
-0.00976095
-0.00917077
-0.00659224
-0.00116148
0.00703248
0.0142902
0.0129324
-0.00913701
-0.0107024
-0.0108141
-0.0105869
-0.00947228
-0.00657708
-0.00113539
0.00662604
0.0135754
0.0129139
-0.0105942
-0.011238
-0.0112386
-0.0110021
-0.00995362
-0.00717247
-0.00203514
0.00516949
0.01195
0.0131443
-0.0202628
-0.0203361
-0.0200761
-0.0199904
-0.0191983
-0.0162028
-0.00934432
0.00193335
0.0147121
0.0213489
-0.0185426
-0.0196984
-0.0196375
-0.0196899
-0.0190993
-0.016375
-0.00968023
0.00212616
0.0155558
0.0217096
-0.0156118
-0.0178309
-0.0184186
-0.0193841
-0.0198407
-0.018065
-0.0118706
0.00045315
0.0149564
0.0217388
-0.0131286
-0.0161108
-0.0172602
-0.0189915
-0.0202766
-0.0192157
-0.0133929
-0.000819241
0.0143194
0.0216676
-0.0117505
-0.0151223
-0.016581
-0.0187146
-0.0204112
-0.0196792
-0.0140724
-0.0014337
0.0139659
0.0215985
-0.0117505
-0.0151223
-0.016581
-0.0187146
-0.0204112
-0.0196792
-0.0140724
-0.00143369
0.0139659
0.0215985
-0.0131285
-0.0161107
-0.0172601
-0.0189914
-0.0202765
-0.0192157
-0.0133929
-0.000819223
0.0143195
0.0216676
-0.0156117
-0.0178308
-0.0184185
-0.019384
-0.0198407
-0.0180649
-0.0118706
0.000453174
0.0149564
0.0217388
-0.0185424
-0.0196982
-0.0196374
-0.0196898
-0.0190992
-0.0163749
-0.00968017
0.00212621
0.0155558
0.0217096
-0.0202625
-0.0203359
-0.020076
-0.0199903
-0.0191983
-0.0162027
-0.00934427
0.00193341
0.0147121
0.021349
-0.0344872
-0.0322679
-0.0307624
-0.0302898
-0.0296121
-0.0264875
-0.0179756
-0.0014399
0.0204346
0.0391282
-0.0323084
-0.0314796
-0.0304161
-0.0304507
-0.0305314
-0.0285485
-0.0212895
-0.00492069
0.0181257
0.0392491
-0.0290544
-0.0294054
-0.029302
-0.0307521
-0.0325634
-0.0324002
-0.0264732
-0.00979503
0.0150814
0.0390959
-0.0264222
-0.0275688
-0.0282108
-0.0307247
-0.0337467
-0.0347482
-0.0296044
-0.0127399
0.0131825
0.0389603
-0.0250002
-0.0265412
-0.0275754
-0.0306121
-0.0341902
-0.0356996
-0.0308999
-0.0139856
0.0123584
0.0388792
-0.0250002
-0.0265412
-0.0275754
-0.0306121
-0.0341902
-0.0356996
-0.0308999
-0.0139855
0.0123584
0.0388792
-0.0264221
-0.0275687
-0.0282108
-0.0307246
-0.0337467
-0.0347482
-0.0296044
-0.0127399
0.0131825
0.0389603
-0.0290543
-0.0294053
-0.0293019
-0.030752
-0.0325633
-0.0324001
-0.0264732
-0.00979502
0.0150814
0.0390959
-0.0323083
-0.0314795
-0.030416
-0.0304506
-0.0305314
-0.0285484
-0.0212895
-0.00492066
0.0181258
0.0392491
-0.034487
-0.0322678
-0.0307623
-0.0302897
-0.0296121
-0.0264875
-0.0179755
-0.00143985
0.0204347
0.0391282
-0.0571202
-0.0466324
-0.041814
-0.0396864
-0.0385509
-0.0350813
-0.0252899
-0.0028392
0.0304916
0.0733528
-0.0538098
-0.0451657
-0.0412254
-0.040377
-0.0408203
-0.0395883
-0.0327299
-0.0118232
0.0227431
0.0738036
-0.0496329
-0.0422447
-0.0394895
-0.0406222
-0.0434543
-0.0446795
-0.0399135
-0.0189191
0.0180133
0.0752176
-0.0465497
-0.0399199
-0.0379851
-0.0404042
-0.0447409
-0.047361
-0.0436566
-0.0223501
0.0160162
0.0765515
-0.0449754
-0.0387044
-0.0371837
-0.0401953
-0.0451719
-0.0483462
-0.0450751
-0.0236121
0.0153742
0.0771952
-0.0449754
-0.0387044
-0.0371837
-0.0401953
-0.0451719
-0.0483462
-0.0450751
-0.0236121
0.0153742
0.0771952
-0.0465496
-0.0399198
-0.037985
-0.0404041
-0.0447408
-0.047361
-0.0436566
-0.0223501
0.0160163
0.0765515
-0.0496328
-0.0422446
-0.0394894
-0.0406221
-0.0434543
-0.0446795
-0.0399135
-0.0189191
0.0180133
0.0752177
-0.0538097
-0.0451656
-0.0412253
-0.0403769
-0.0408203
-0.0395882
-0.0327299
-0.0118232
0.0227431
0.0738036
-0.0571201
-0.0466323
-0.0418139
-0.0396862
-0.0385509
-0.0350813
-0.0252898
-0.00283917
0.0304916
0.0733528
-0.0887059
-0.060948
-0.0516544
-0.0459669
-0.0432003
-0.0386573
-0.0260783
0.00484879
0.0517245
0.150907
-0.0810234
-0.0570355
-0.0502545
-0.0469813
-0.0465751
-0.0447715
-0.0359287
-0.00595702
0.0453261
0.162516
-0.0746202
-0.052247
-0.0470261
-0.0462675
-0.0487924
-0.0496602
-0.0429052
-0.0113125
0.0463117
0.171527
-0.0706361
-0.0489718
-0.0446365
-0.0454017
-0.0496429
-0.0519958
-0.0460687
-0.0131758
0.0475839
0.177197
-0.0687984
-0.047402
-0.0434809
-0.0449239
-0.0498847
-0.0528329
-0.0471932
-0.0137727
0.0482833
0.179657
-0.0687984
-0.047402
-0.0434809
-0.0449239
-0.0498846
-0.0528329
-0.0471932
-0.0137727
0.0482833
0.179657
-0.070636
-0.0489718
-0.0446364
-0.0454017
-0.0496428
-0.0519958
-0.0460687
-0.0131758
0.0475839
0.177197
-0.0746202
-0.0522469
-0.047026
-0.0462674
-0.0487924
-0.0496602
-0.0429052
-0.0113125
0.0463117
0.171527
-0.0810234
-0.0570355
-0.0502545
-0.0469812
-0.046575
-0.0447715
-0.0359287
-0.00595702
0.0453261
0.162516
-0.0887058
-0.060948
-0.0516543
-0.0459668
-0.0432002
-0.0386573
-0.0260782
0.00484881
0.0517245
0.150907
-0.199023
-0.0736884
-0.0486419
-0.0401082
-0.0357715
-0.02903
-0.0121834
0.0329436
0.11908
0.324665
-0.186753
-0.0610214
-0.0408812
-0.0367418
-0.0360484
-0.0326318
-0.0182009
0.0297356
0.129541
0.359255
-0.177885
-0.0521501
-0.0342673
-0.0331944
-0.0356899
-0.0346666
-0.0212384
0.0297821
0.138809
0.380072
-0.172767
-0.0471244
-0.0302504
-0.0308946
-0.0352346
-0.0355445
-0.0224493
0.0302143
0.143388
0.390064
-0.170518
-0.0449567
-0.0285006
-0.0298728
-0.0349977
-0.0358807
-0.0229227
0.030397
0.145126
0.393865
-0.170518
-0.0449567
-0.0285006
-0.0298728
-0.0349977
-0.0358807
-0.0229227
0.030397
0.145126
0.393865
-0.172767
-0.0471243
-0.0302504
-0.0308945
-0.0352346
-0.0355445
-0.0224493
0.0302144
0.143388
0.390064
-0.177885
-0.0521501
-0.0342673
-0.0331944
-0.0356899
-0.0346666
-0.0212384
0.0297821
0.138809
0.380072
-0.186753
-0.0610213
-0.0408811
-0.0367417
-0.0360483
-0.0326318
-0.0182009
0.0297357
0.129541
0.359255
-0.199023
-0.0736882
-0.0486419
-0.0401081
-0.0357715
-0.02903
-0.0121833
0.0329436
0.11908
0.324665
)
;

boundaryField
{
    top
    {
        type            zeroGradient;
    }
    others
    {
        type            zeroGradient;
    }
}


// ************************************************************************* //
