/*--------------------------------*- C++ -*----------------------------------*\
  =========                 |
  \\      /  F ield         | OpenFOAM: The Open Source CFD Toolbox
   \\    /   O peration     | Website:  https://openfoam.org
    \\  /    A nd           | Version:  9
     \\/     M anipulation  |
\*---------------------------------------------------------------------------*/
FoamFile
{
    format      ascii;
    class       surfaceScalarField;
    location    "0.61";
    object      phi;
}
// * * * * * * * * * * * * * * * * * * * * * * * * * * * * * * * * * * * * * //

dimensions      [0 3 -1 0 0 0 0];

internalField   nonuniform List<scalar> 
2700
(
-6.09749e-08
-1.02931e-07
1.63768e-07
-3.06148e-07
-1.13462e-07
3.58635e-07
-6.28917e-07
-1.13766e-07
4.36536e-07
-9.45364e-07
-1.34951e-07
4.51397e-07
-1.16855e-06
-1.86818e-07
4.10005e-07
-1.20164e-06
-2.63887e-07
2.96974e-07
-9.78479e-07
-3.393e-07
1.16143e-07
-5.40418e-07
-3.63985e-07
-7.40764e-08
-1.04382e-07
-2.91501e-07
-1.44535e-07
-9.62505e-08
-8.13151e-09
-1.60321e-07
-2.22522e-07
2.79911e-07
-6.86088e-07
-2.93677e-07
7.05982e-07
-1.3489e-06
-3.13986e-07
8.63029e-07
-1.96942e-06
-3.54886e-07
8.40464e-07
-2.37922e-06
-4.37429e-07
6.60403e-07
-2.40511e-06
-5.50323e-07
3.12328e-07
-1.93786e-06
-6.47754e-07
-1.5879e-07
-1.07537e-06
-6.57263e-07
-5.69219e-07
-2.35206e-07
-5.21563e-07
-6.10098e-07
-2.11085e-07
-1.2037e-07
-2.3588e-07
-2.41869e-07
2.55228e-07
-9.49607e-07
-3.42811e-07
7.62862e-07
-1.82849e-06
-3.7471e-07
9.39603e-07
-2.63051e-06
-4.16917e-07
8.64053e-07
-3.13469e-06
-4.9306e-07
5.59814e-07
-3.12362e-06
-5.92802e-07
3.14104e-08
-2.4664e-06
-6.65762e-07
-6.39213e-07
-1.3181e-06
-6.56029e-07
-1.14953e-06
-2.52099e-07
-5.19151e-07
-1.06842e-06
-2.28532e-07
-2.34652e-07
-2.86079e-07
-1.52936e-07
1.97145e-07
-1.12204e-06
-2.23482e-07
7.16629e-07
-2.13867e-06
-2.46419e-07
8.88348e-07
-3.05151e-06
-2.72221e-07
7.68137e-07
-3.60521e-06
-3.1567e-07
3.76311e-07
-3.54467e-06
-3.69886e-07
-2.83449e-07
-2.74749e-06
-4.07361e-07
-1.05559e-06
-1.41178e-06
-3.95567e-07
-1.59617e-06
-2.25363e-07
-3.12968e-07
-1.3926e-06
-1.43365e-07
-3.1053e-07
-3.11573e-07
-2.95541e-12
1.5864e-07
-1.20822e-06
-2.571e-12
6.73163e-07
-2.29244e-06
-2.04719e-12
8.37806e-07
-3.25771e-06
-1.48621e-12
6.93047e-07
-3.83045e-06
-1.12641e-12
2.57078e-07
-3.74076e-06
-7.71918e-13
-4.59575e-07
-2.86783e-06
-5.81418e-13
-1.28029e-06
-1.43949e-06
-4.55848e-13
-1.82391e-06
-2.02244e-07
-3.57213e-13
-1.55021e-06
-2.83206e-13
-3.45609e-07
-3.11572e-07
1.52929e-07
1.58641e-07
-1.20822e-06
2.23477e-07
6.73164e-07
-2.29244e-06
2.46415e-07
8.37807e-07
-3.2577e-06
2.72218e-07
6.93047e-07
-3.83045e-06
3.15668e-07
2.57078e-07
-3.74076e-06
3.69884e-07
-4.59575e-07
-2.86783e-06
4.0736e-07
-1.28029e-06
-1.43949e-06
3.95566e-07
-1.82391e-06
-2.02244e-07
3.12967e-07
-1.55021e-06
1.43364e-07
-3.45609e-07
-2.86077e-07
2.41859e-07
1.97147e-07
-1.12203e-06
3.42804e-07
7.1663e-07
-2.13867e-06
3.74705e-07
8.88348e-07
-3.0515e-06
4.16914e-07
7.68137e-07
-3.60521e-06
4.93058e-07
3.76312e-07
-3.54467e-06
5.92801e-07
-2.83449e-07
-2.74749e-06
6.65761e-07
-1.05559e-06
-1.41178e-06
6.56028e-07
-1.59617e-06
-2.25363e-07
5.1915e-07
-1.3926e-06
2.28531e-07
-3.1053e-07
-2.35875e-07
2.22502e-07
2.55232e-07
-9.49602e-07
2.93666e-07
7.62865e-07
-1.82848e-06
3.13981e-07
9.39605e-07
-2.63051e-06
3.54883e-07
8.64054e-07
-3.13469e-06
4.37427e-07
5.59815e-07
-3.12362e-06
5.50322e-07
3.14106e-08
-2.4664e-06
6.47753e-07
-6.39213e-07
-1.3181e-06
6.57263e-07
-1.14953e-06
-2.52098e-07
5.21563e-07
-1.06842e-06
2.11085e-07
-2.34652e-07
-1.60307e-07
1.02883e-07
2.79925e-07
-6.86078e-07
1.13449e-07
7.05989e-07
-1.34889e-06
1.13762e-07
8.63032e-07
-1.96942e-06
1.34948e-07
8.40465e-07
-2.37921e-06
1.86817e-07
6.60404e-07
-2.40511e-06
2.63886e-07
3.12329e-07
-1.93786e-06
3.393e-07
-1.5879e-07
-1.07537e-06
3.63984e-07
-5.69219e-07
-2.35205e-07
2.91501e-07
-6.10098e-07
9.62502e-08
-1.2037e-07
-6.09309e-08
1.63814e-07
-3.0613e-07
3.58649e-07
-6.28909e-07
4.3654e-07
-9.45359e-07
4.51399e-07
-1.16855e-06
4.10006e-07
-1.20164e-06
2.96974e-07
-9.78478e-07
1.16143e-07
-5.40417e-07
-7.40761e-08
-1.04382e-07
-1.44535e-07
-8.13152e-09
-2.20213e-07
-2.70012e-07
6.53994e-07
-7.212e-07
-3.57629e-07
1.21725e-06
-1.32218e-06
-3.73087e-07
1.4106e-06
-1.89245e-06
-3.83662e-07
1.40534e-06
-2.28999e-06
-4.16667e-07
1.22421e-06
-2.35661e-06
-4.73553e-07
8.37145e-07
-1.97756e-06
-5.27664e-07
2.64766e-07
-1.19202e-06
-5.21133e-07
-3.38491e-07
-3.31444e-07
-3.87189e-07
-6.1792e-07
-8.30284e-08
-2.56547e-07
-5.96075e-07
-4.89442e-07
1.09542e-06
-1.80272e-06
-7.07503e-07
2.2625e-06
-3.18523e-06
-7.5325e-07
2.6257e-06
-4.4202e-06
-7.73921e-07
2.46569e-06
-5.20182e-06
-8.23917e-07
1.84928e-06
-5.23677e-06
-9.01976e-07
7.75698e-07
-4.34093e-06
-9.67892e-07
-6.14403e-07
-2.64131e-06
-9.2796e-07
-1.86201e-06
-8.17266e-07
-7.01116e-07
-2.12021e-06
-2.28444e-07
-7.92221e-07
-8.77246e-07
-4.95496e-07
1.13853e-06
-2.58706e-06
-7.4946e-07
2.51463e-06
-4.49064e-06
-8.06656e-07
2.89659e-06
-6.12631e-06
-8.27166e-07
2.55296e-06
-7.08482e-06
-8.69635e-07
1.56405e-06
-7.02428e-06
-9.33815e-07
2.71123e-09
-5.72201e-06
-9.68196e-07
-1.94118e-06
-3.41745e-06
-9.09827e-07
-3.47223e-06
-1.03048e-06
-6.951e-07
-3.4614e-06
-2.66923e-07
-1.22666e-06
-1.05934e-06
-3.03554e-07
1.06455e-06
-3.0979e-06
-4.69331e-07
2.47505e-06
-5.32879e-06
-5.07674e-07
2.82026e-06
-7.19559e-06
-5.19319e-07
2.32709e-06
-8.23091e-06
-5.40848e-07
1.08284e-06
-8.05435e-06
-5.71934e-07
-8.21888e-07
-6.46708e-06
-5.8238e-07
-3.02868e-06
-3.78608e-06
-5.41173e-07
-4.64582e-06
-1.09485e-06
-4.16619e-07
-4.36232e-06
-1.72349e-07
-1.49995e-06
-1.14831e-06
-2.5183e-12
1.0034e-06
-3.3492e-06
-2.3736e-12
2.40472e-06
-5.73801e-06
-2.00077e-12
2.71894e-06
-7.70923e-06
-1.51457e-12
2.14495e-06
-8.76892e-06
-1.12027e-12
7.75922e-07
-8.5204e-06
-7.95039e-13
-1.28003e-06
-6.78589e-06
-5.95716e-13
-3.59718e-06
-3.92659e-06
-4.4387e-13
-5.22438e-06
-1.10593e-06
-3.47756e-13
-4.78749e-06
-2.9854e-13
-1.62389e-06
-1.14831e-06
3.03548e-07
1.0034e-06
-3.3492e-06
4.69326e-07
2.40472e-06
-5.73801e-06
5.0767e-07
2.71894e-06
-7.70923e-06
5.19316e-07
2.14495e-06
-8.76892e-06
5.40846e-07
7.75922e-07
-8.5204e-06
5.71932e-07
-1.28003e-06
-6.78589e-06
5.82379e-07
-3.59718e-06
-3.92659e-06
5.41172e-07
-5.22438e-06
-1.10593e-06
4.16618e-07
-4.78749e-06
1.72349e-07
-1.62389e-06
-1.05934e-06
4.95489e-07
1.06455e-06
-3.09789e-06
7.49454e-07
2.47505e-06
-5.32879e-06
8.06652e-07
2.82027e-06
-7.19559e-06
8.27163e-07
2.32709e-06
-8.23091e-06
8.69633e-07
1.08284e-06
-8.05435e-06
9.33814e-07
-8.21887e-07
-6.46708e-06
9.68195e-07
-3.02868e-06
-3.78608e-06
9.09826e-07
-4.64582e-06
-1.09485e-06
6.951e-07
-4.36232e-06
2.66923e-07
-1.49995e-06
-8.77243e-07
4.89431e-07
1.13853e-06
-2.58705e-06
7.07495e-07
2.51463e-06
-4.49064e-06
7.53245e-07
2.8966e-06
-6.1263e-06
7.73918e-07
2.55297e-06
-7.08482e-06
8.23916e-07
1.56405e-06
-7.02428e-06
9.01975e-07
2.71156e-09
-5.72201e-06
9.67892e-07
-1.94118e-06
-3.41745e-06
9.2796e-07
-3.47223e-06
-1.03048e-06
7.01116e-07
-3.4614e-06
2.28444e-07
-1.22666e-06
-5.96068e-07
2.69998e-07
1.09543e-06
-1.80272e-06
3.57621e-07
2.26251e-06
-3.18523e-06
3.73083e-07
2.62571e-06
-4.42019e-06
3.8366e-07
2.46569e-06
-5.20182e-06
4.16666e-07
1.84928e-06
-5.23677e-06
4.73552e-07
7.75699e-07
-4.34093e-06
5.27664e-07
-6.14402e-07
-2.64131e-06
5.21133e-07
-1.86201e-06
-8.17266e-07
3.87189e-07
-2.12021e-06
8.30282e-08
-7.92221e-07
-2.202e-07
6.54013e-07
-7.2119e-07
1.21726e-06
-1.32217e-06
1.4106e-06
-1.89245e-06
1.40534e-06
-2.28999e-06
1.22421e-06
-2.3566e-06
8.37146e-07
-1.97756e-06
2.64767e-07
-1.19202e-06
-3.3849e-07
-3.31444e-07
-6.17919e-07
-2.56547e-07
-3.32898e-07
-4.14065e-07
1.40096e-06
-1.0049e-06
-5.52849e-07
2.4421e-06
-1.78579e-06
-5.57738e-07
2.74922e-06
-2.54296e-06
-5.23313e-07
2.68582e-06
-3.12615e-06
-4.98059e-07
2.30546e-06
-3.33521e-06
-5.03202e-07
1.5494e-06
-2.96925e-06
-5.26692e-07
4.25501e-07
-1.9659e-06
-5.21477e-07
-8.20363e-07
-6.69395e-07
-3.92104e-07
-1.52232e-06
-3.97542e-08
-8.86188e-07
-9.47018e-07
-7.15008e-07
2.34338e-06
-2.67031e-06
-1.02794e-06
4.46089e-06
-4.57375e-06
-1.04489e-06
5.01629e-06
-6.27742e-06
-9.71278e-07
4.61733e-06
-7.43279e-06
-9.00704e-07
3.40729e-06
-7.6677e-06
-8.67147e-07
1.37456e-06
-6.66033e-06
-8.54137e-07
-1.29433e-06
-4.38515e-06
-8.09917e-07
-3.84875e-06
-1.57443e-06
-6.23115e-07
-4.69993e-06
-1.54678e-07
-2.25172e-06
-1.42168e-06
-7.02797e-07
2.548e-06
-3.92352e-06
-1.05022e-06
5.03875e-06
-6.59319e-06
-1.07121e-06
5.59259e-06
-8.86144e-06
-9.86196e-07
4.83613e-06
-1.02613e-05
-8.92547e-07
2.95571e-06
-1.03554e-05
-8.21514e-07
5.12291e-08
-8.81727e-06
-7.68534e-07
-3.56492e-06
-5.70308e-06
-7.07606e-07
-6.68873e-06
-2.01213e-06
-5.58578e-07
-7.21688e-06
-1.90174e-07
-3.20329e-06
-1.73338e-06
-4.23231e-07
2.51836e-06
-4.74471e-06
-6.44638e-07
5.0808e-06
-7.88737e-06
-6.58002e-07
5.54972e-06
-1.04611e-05
-6.01018e-07
4.51559e-06
-1.19347e-05
-5.34021e-07
2.19797e-06
-1.18609e-05
-4.76007e-07
-1.24125e-06
-9.94712e-06
-4.29459e-07
-5.28149e-06
-6.33405e-06
-3.88886e-07
-8.57761e-06
-2.18351e-06
-3.13848e-07
-8.75759e-06
-1.23389e-07
-3.75025e-06
-1.8857e-06
-1.90047e-12
2.46587e-06
-5.14652e-06
-1.95636e-12
5.02091e-06
-8.51208e-06
-1.70382e-12
5.4265e-06
-1.12149e-05
-1.33383e-12
4.24675e-06
-1.26967e-05
-1.00322e-12
1.72374e-06
-1.25167e-05
-7.22807e-13
-1.93611e-06
-1.04137e-05
-5.24766e-13
-6.12964e-06
-6.57597e-06
-3.86513e-13
-9.45096e-06
-2.2373e-06
-3.02443e-13
-9.44e-06
-2.50758e-13
-3.98458e-06
-1.8857e-06
4.23227e-07
2.46587e-06
-5.14652e-06
6.44634e-07
5.02092e-06
-8.51208e-06
6.57999e-07
5.4265e-06
-1.12149e-05
6.01015e-07
4.24675e-06
-1.26967e-05
5.34019e-07
1.72374e-06
-1.25167e-05
4.76006e-07
-1.93611e-06
-1.04137e-05
4.29458e-07
-6.12964e-06
-6.57597e-06
3.88885e-07
-9.45096e-06
-2.2373e-06
3.13847e-07
-9.44e-06
1.23388e-07
-3.98458e-06
-1.73338e-06
7.02792e-07
2.51836e-06
-4.74471e-06
1.05022e-06
5.0808e-06
-7.88737e-06
1.07121e-06
5.54972e-06
-1.04611e-05
9.86194e-07
4.51559e-06
-1.19347e-05
8.92545e-07
2.19798e-06
-1.18609e-05
8.21513e-07
-1.24125e-06
-9.94712e-06
7.68533e-07
-5.28149e-06
-6.33405e-06
7.07606e-07
-8.57761e-06
-2.18351e-06
5.58578e-07
-8.75759e-06
1.90174e-07
-3.75025e-06
-1.42168e-06
7.15003e-07
2.548e-06
-3.92351e-06
1.02793e-06
5.03875e-06
-6.59319e-06
1.04489e-06
5.59259e-06
-8.86143e-06
9.71276e-07
4.83613e-06
-1.02612e-05
9.00702e-07
2.95571e-06
-1.03554e-05
8.67146e-07
5.12298e-08
-8.81726e-06
8.54136e-07
-3.56492e-06
-5.70307e-06
8.09917e-07
-6.68873e-06
-2.01213e-06
6.23115e-07
-7.21688e-06
1.54678e-07
-3.20329e-06
-9.47015e-07
4.1406e-07
2.34338e-06
-2.67031e-06
5.52845e-07
4.46089e-06
-4.57374e-06
5.57735e-07
5.0163e-06
-6.27742e-06
5.23311e-07
4.61733e-06
-7.43279e-06
4.98059e-07
3.40729e-06
-7.6677e-06
5.03202e-07
1.37456e-06
-6.66033e-06
5.26691e-07
-1.29433e-06
-4.38515e-06
5.21477e-07
-3.84875e-06
-1.57443e-06
3.92104e-07
-4.69993e-06
3.97541e-08
-2.25172e-06
-3.32894e-07
1.40097e-06
-1.0049e-06
2.44211e-06
-1.78579e-06
2.74923e-06
-2.54295e-06
2.68582e-06
-3.12615e-06
2.30546e-06
-3.33521e-06
1.5494e-06
-2.96925e-06
4.25501e-07
-1.9659e-06
-8.20363e-07
-6.69395e-07
-1.52232e-06
-8.86188e-07
-4.18103e-07
-5.42766e-07
2.36183e-06
-1.20753e-06
-7.05792e-07
3.93732e-06
-2.11663e-06
-6.61661e-07
4.31998e-06
-3.05188e-06
-5.31971e-07
4.15304e-06
-3.89404e-06
-3.93085e-07
3.54071e-06
-4.41118e-06
-2.9973e-07
2.36627e-06
-4.26536e-06
-2.77705e-07
5.57377e-07
-3.16083e-06
-3.22283e-07
-1.60261e-06
-1.30194e-06
-3.01542e-07
-3.07966e-06
-1.20479e-09
-2.18693e-06
-1.22732e-06
-9.14248e-07
3.94218e-06
-3.34656e-06
-1.27042e-06
7.14475e-06
-5.65257e-06
-1.18372e-06
7.84437e-06
-7.78656e-06
-9.13537e-07
7.13288e-06
-9.42854e-06
-6.04747e-07
5.26094e-06
-1.01511e-05
-3.58722e-07
2.15611e-06
-9.41424e-06
-2.39407e-07
-2.06949e-06
-6.80627e-06
-2.78349e-07
-6.50066e-06
-2.82779e-06
-3.18567e-07
-8.66138e-06
-5.31305e-08
-5.02759e-06
-1.86151e-06
-8.82382e-07
4.37764e-06
-4.98172e-06
-1.26785e-06
8.15639e-06
-8.23979e-06
-1.17255e-06
8.83949e-06
-1.10539e-05
-8.718e-07
7.60845e-06
-1.29903e-05
-5.16944e-07
4.8044e-06
-1.35609e-05
-2.11272e-07
4.74309e-07
-1.22482e-05
-5.06812e-08
-5.06631e-06
-8.67496e-06
-8.36902e-08
-1.04566e-05
-3.55038e-06
-1.85067e-07
-1.2475e-05
-7.08335e-08
-6.73597e-06
-2.27782e-06
-5.25079e-07
4.43888e-06
-6.04581e-06
-7.6671e-07
8.34765e-06
-9.87009e-06
-7.0444e-07
8.90588e-06
-1.30129e-05
-5.09468e-07
7.29604e-06
-1.4988e-05
-2.76787e-07
3.93296e-06
-1.53436e-05
-7.27086e-08
-1.02426e-06
-1.36137e-05
3.5717e-08
-7.09774e-06
-9.50974e-06
1.26192e-08
-1.27779e-05
-3.84169e-06
-7.01937e-08
-1.45405e-05
-4.4787e-08
-7.61798e-06
-2.47954e-06
-1.38417e-12
4.42033e-06
-6.55929e-06
-1.52487e-12
8.33395e-06
-1.06397e-05
-1.3944e-12
8.80247e-06
-1.39044e-05
-1.12655e-12
7.00197e-06
-1.58524e-05
-8.38722e-13
3.39502e-06
-1.60668e-05
-5.94983e-13
-1.79443e-06
-1.41353e-05
-4.20442e-13
-8.02543e-06
-9.81319e-06
-3.11113e-13
-1.37605e-05
-3.94134e-06
-2.45769e-13
-1.5382e-05
-1.92689e-13
-7.97071e-06
-2.47954e-06
5.25076e-07
4.42033e-06
-6.55929e-06
7.66706e-07
8.33395e-06
-1.06397e-05
7.04437e-07
8.80247e-06
-1.39044e-05
5.09466e-07
7.00197e-06
-1.58524e-05
2.76785e-07
3.39502e-06
-1.60668e-05
7.27074e-08
-1.79443e-06
-1.41353e-05
-3.57178e-08
-8.02543e-06
-9.81319e-06
-1.26198e-08
-1.37605e-05
-3.94134e-06
7.01932e-08
-1.5382e-05
4.47866e-08
-7.97071e-06
-2.27782e-06
8.82379e-07
4.43888e-06
-6.04581e-06
1.26785e-06
8.34765e-06
-9.87009e-06
1.17255e-06
8.90588e-06
-1.30129e-05
8.71798e-07
7.29604e-06
-1.4988e-05
5.16943e-07
3.93296e-06
-1.53436e-05
2.11271e-07
-1.02426e-06
-1.36137e-05
5.06806e-08
-7.09774e-06
-9.50974e-06
8.36897e-08
-1.27779e-05
-3.84169e-06
1.85066e-07
-1.45405e-05
7.08331e-08
-7.61798e-06
-1.86151e-06
9.14245e-07
4.37765e-06
-4.98172e-06
1.27041e-06
8.15639e-06
-8.23979e-06
1.18372e-06
8.83949e-06
-1.10538e-05
9.13536e-07
7.60845e-06
-1.29903e-05
6.04746e-07
4.80441e-06
-1.35609e-05
3.58721e-07
4.74309e-07
-1.22482e-05
2.39406e-07
-5.06631e-06
-8.67496e-06
2.78349e-07
-1.04566e-05
-3.55038e-06
3.18567e-07
-1.2475e-05
5.31302e-08
-6.73597e-06
-1.22732e-06
5.42764e-07
3.94218e-06
-3.34656e-06
7.0579e-07
7.14475e-06
-5.65257e-06
6.6166e-07
7.84437e-06
-7.78656e-06
5.3197e-07
7.13288e-06
-9.42854e-06
3.93084e-07
5.26094e-06
-1.01511e-05
2.9973e-07
2.15611e-06
-9.41424e-06
2.77705e-07
-2.06949e-06
-6.80627e-06
3.22283e-07
-6.50066e-06
-2.82779e-06
3.01542e-07
-8.66138e-06
1.20473e-09
-5.02759e-06
-4.18101e-07
2.36183e-06
-1.20753e-06
3.93733e-06
-2.11663e-06
4.31999e-06
-3.05188e-06
4.15304e-06
-3.89404e-06
3.54071e-06
-4.41118e-06
2.36628e-06
-4.26536e-06
5.57377e-07
-3.16083e-06
-1.60261e-06
-1.30194e-06
-3.07966e-06
-2.18693e-06
-5.13691e-07
-6.45945e-07
3.52146e-06
-1.36539e-06
-7.99173e-07
5.5882e-06
-2.32315e-06
-6.53829e-07
5.93157e-06
-3.39084e-06
-3.58243e-07
5.57897e-06
-4.54225e-06
-7.7577e-09
4.69987e-06
-5.54971e-06
2.67868e-07
3.10587e-06
-5.91091e-06
3.74761e-07
5.43818e-07
-4.94601e-06
2.30984e-07
-2.79849e-06
-2.45139e-06
-3.01417e-09
-5.57127e-06
7.81697e-09
-4.64613e-06
-1.47358e-06
-1.06584e-06
5.83565e-06
-3.84423e-06
-1.4042e-06
1.01204e-05
-6.37081e-06
-1.12166e-06
1.08388e-05
-8.81524e-06
-5.28354e-07
9.74742e-06
-1.0974e-05
1.61237e-07
7.25072e-06
-1.24356e-05
7.38507e-07
3.14709e-06
-1.24248e-05
9.91266e-07
-2.69684e-06
-9.9584e-06
7.5399e-07
-9.49005e-06
-4.83338e-06
2.31885e-07
-1.40213e-05
9.39154e-09
-9.86254e-06
-2.20939e-06
-1.01238e-06
6.53358e-06
-5.71686e-06
-1.37433e-06
1.1634e-05
-9.28702e-06
-1.07231e-06
1.23603e-05
-1.24364e-05
-4.35536e-07
1.0665e-05
-1.48656e-05
3.00656e-07
7.09418e-06
-1.61358e-05
9.11541e-07
1.57157e-06
-1.55446e-05
1.1695e-06
-5.83584e-06
-1.21481e-05
9.12428e-07
-1.40115e-05
-5.82226e-06
3.47056e-07
-1.8916e-05
1.59679e-08
-1.25648e-05
-2.68218e-06
-5.9594e-07
6.70462e-06
-6.90517e-06
-8.20141e-07
1.20164e-05
-1.10582e-05
-6.28449e-07
1.2615e-05
-1.44852e-05
-2.26244e-07
1.05137e-05
-1.68642e-05
2.35557e-07
6.37706e-06
-1.78219e-05
6.13524e-07
2.31487e-07
-1.68148e-05
7.57952e-07
-7.69325e-06
-1.29805e-05
5.86494e-07
-1.62863e-05
-6.19232e-06
2.33651e-07
-2.12153e-05
1.35157e-08
-1.38079e-05
-2.90627e-06
-1.02312e-12
6.73066e-06
-7.46347e-06
-1.20886e-12
1.2071e-05
-1.18634e-05
-1.16361e-12
1.25739e-05
-1.53653e-05
-9.70237e-13
1.02777e-05
-1.76528e-05
-6.99022e-13
5.91805e-06
-1.8424e-05
-4.72375e-13
-4.09729e-07
-1.7229e-05
-3.0347e-13
-8.46246e-06
-1.32492e-05
-2.31656e-13
-1.71538e-05
-6.32029e-06
-1.82376e-13
-2.20773e-05
-1.59982e-13
-1.42775e-05
-2.90627e-06
5.95937e-07
6.73066e-06
-7.46346e-06
8.20139e-07
1.2071e-05
-1.18634e-05
6.28447e-07
1.25739e-05
-1.53653e-05
2.26242e-07
1.02777e-05
-1.76528e-05
-2.35558e-07
5.91805e-06
-1.8424e-05
-6.13525e-07
-4.09729e-07
-1.7229e-05
-7.57953e-07
-8.46246e-06
-1.32492e-05
-5.86495e-07
-1.71538e-05
-6.32029e-06
-2.33652e-07
-2.20773e-05
-1.35161e-08
-1.42775e-05
-2.68218e-06
1.01238e-06
6.70462e-06
-6.90517e-06
1.37433e-06
1.20164e-05
-1.10582e-05
1.07231e-06
1.2615e-05
-1.44852e-05
4.35535e-07
1.05137e-05
-1.68642e-05
-3.00657e-07
6.37706e-06
-1.78219e-05
-9.11542e-07
2.31488e-07
-1.68148e-05
-1.1695e-06
-7.69325e-06
-1.29805e-05
-9.12428e-07
-1.62863e-05
-6.19232e-06
-3.47057e-07
-2.12153e-05
-1.59682e-08
-1.38079e-05
-2.20939e-06
1.06584e-06
6.53358e-06
-5.71686e-06
1.4042e-06
1.1634e-05
-9.28702e-06
1.12166e-06
1.23603e-05
-1.24364e-05
5.28353e-07
1.0665e-05
-1.48655e-05
-1.61238e-07
7.09419e-06
-1.61358e-05
-7.38508e-07
1.57157e-06
-1.55446e-05
-9.91266e-07
-5.83584e-06
-1.21481e-05
-7.53991e-07
-1.40115e-05
-5.82226e-06
-2.31885e-07
-1.8916e-05
-9.39187e-09
-1.25648e-05
-1.47358e-06
6.45944e-07
5.83565e-06
-3.84423e-06
7.99172e-07
1.01204e-05
-6.37081e-06
6.53828e-07
1.08388e-05
-8.81524e-06
3.58242e-07
9.74742e-06
-1.0974e-05
7.75741e-09
7.25072e-06
-1.24356e-05
-2.67868e-07
3.14709e-06
-1.24248e-05
-3.74761e-07
-2.69684e-06
-9.9584e-06
-2.30984e-07
-9.49005e-06
-4.83338e-06
3.01404e-09
-1.40213e-05
-7.81699e-09
-9.86254e-06
-5.1369e-07
3.52146e-06
-1.36539e-06
5.5882e-06
-2.32315e-06
5.93157e-06
-3.39084e-06
5.57898e-06
-4.54225e-06
4.69987e-06
-5.54971e-06
3.10587e-06
-5.91091e-06
5.43818e-07
-4.94601e-06
-2.79848e-06
-2.45139e-06
-5.57127e-06
-4.64613e-06
-7.08243e-07
-7.25251e-07
4.95496e-06
-1.54212e-06
-8.25355e-07
7.24743e-06
-2.38156e-06
-5.18605e-07
7.28962e-06
-3.42675e-06
2.72483e-08
6.59692e-06
-4.81194e-06
6.62727e-07
5.42233e-06
-6.41236e-06
1.2319e-06
3.47438e-06
-7.60316e-06
1.50259e-06
2.32024e-07
-7.22561e-06
1.21464e-06
-4.39068e-06
-4.27705e-06
4.89602e-07
-9.00944e-06
-6.42618e-08
-8.85892e-06
-1.76801e-06
-1.16584e-06
8.04425e-06
-4.17433e-06
-1.42206e-06
1.31235e-05
-6.55561e-06
-8.56663e-07
1.35581e-05
-8.92643e-06
1.64959e-07
1.19805e-05
-1.1331e-05
1.34196e-06
8.97603e-06
-1.34919e-05
2.3423e-06
4.1976e-06
-1.45603e-05
2.75707e-06
-2.88291e-06
-1.29886e-05
2.21832e-06
-1.20654e-05
-7.40877e-06
9.45301e-07
-2.00569e-05
-5.85577e-08
-1.7277e-05
-2.51644e-06
-1.08667e-06
8.97085e-06
-6.06436e-06
-1.36739e-06
1.51272e-05
-9.43253e-06
-7.87562e-07
1.56594e-05
-1.23806e-05
2.59396e-07
1.35186e-05
-1.48671e-05
1.43548e-06
9.48716e-06
-1.66576e-05
2.38066e-06
3.32371e-06
-1.70894e-05
2.68687e-06
-5.3338e-06
-1.4779e-05
2.0836e-06
-1.61872e-05
-8.35229e-06
8.68944e-07
-2.52663e-05
-2.92525e-08
-2.09464e-05
-2.9743e-06
-6.31807e-07
9.22406e-06
-7.20754e-06
-8.05815e-07
1.56881e-05
-1.10774e-05
-4.47943e-07
1.61453e-05
-1.41652e-05
1.94361e-07
1.36665e-05
-1.64284e-05
9.00265e-07
9.17546e-06
-1.77768e-05
1.43914e-06
2.52145e-06
-1.77816e-05
1.57673e-06
-6.57831e-06
-1.52244e-05
1.18352e-06
-1.79434e-05
-8.64655e-06
4.79977e-07
-2.74041e-05
-8.36949e-09
-2.24753e-05
-3.1829e-06
-7.80678e-13
9.28175e-06
-7.72215e-06
-9.35732e-13
1.58045e-05
-1.17838e-05
-9.28797e-13
1.61876e-05
-1.48652e-05
-7.55605e-13
1.35535e-05
-1.6953e-05
-5.08692e-13
8.90616e-06
-1.80591e-05
-3.22169e-13
2.13551e-06
-1.79048e-05
-2.02999e-13
-7.04002e-06
-1.53217e-05
-1.81851e-13
-1.85534e-05
-8.75386e-06
-1.44514e-13
-2.81651e-05
-1.6427e-13
-2.30397e-05
-3.1829e-06
6.31806e-07
9.28175e-06
-7.72215e-06
8.05813e-07
1.58045e-05
-1.17838e-05
4.47942e-07
1.61876e-05
-1.48652e-05
-1.94362e-07
1.35535e-05
-1.6953e-05
-9.00266e-07
8.90616e-06
-1.80591e-05
-1.43914e-06
2.13551e-06
-1.79048e-05
-1.57673e-06
-7.04002e-06
-1.53217e-05
-1.18352e-06
-1.85534e-05
-8.75386e-06
-4.79977e-07
-2.81651e-05
8.36917e-09
-2.30397e-05
-2.9743e-06
1.08666e-06
9.22406e-06
-7.20754e-06
1.36739e-06
1.56881e-05
-1.10774e-05
7.8756e-07
1.61453e-05
-1.41652e-05
-2.59397e-07
1.36665e-05
-1.64284e-05
-1.43548e-06
9.17546e-06
-1.77768e-05
-2.38066e-06
2.52145e-06
-1.77816e-05
-2.68687e-06
-6.57831e-06
-1.52244e-05
-2.0836e-06
-1.79434e-05
-8.64655e-06
-8.68945e-07
-2.74041e-05
2.92521e-08
-2.24753e-05
-2.51644e-06
1.16584e-06
8.97085e-06
-6.06436e-06
1.42206e-06
1.51272e-05
-9.43253e-06
8.56662e-07
1.56594e-05
-1.23806e-05
-1.64959e-07
1.35186e-05
-1.48671e-05
-1.34196e-06
9.48716e-06
-1.66576e-05
-2.3423e-06
3.32371e-06
-1.70894e-05
-2.75707e-06
-5.3338e-06
-1.4779e-05
-2.21832e-06
-1.61872e-05
-8.35229e-06
-9.45301e-07
-2.52663e-05
5.85574e-08
-2.09464e-05
-1.76801e-06
7.25251e-07
8.04425e-06
-4.17433e-06
8.25355e-07
1.31235e-05
-6.55561e-06
5.18605e-07
1.35581e-05
-8.92643e-06
-2.72488e-08
1.19805e-05
-1.1331e-05
-6.62727e-07
8.97603e-06
-1.34919e-05
-1.2319e-06
4.1976e-06
-1.45603e-05
-1.50259e-06
-2.88291e-06
-1.29886e-05
-1.21464e-06
-1.20654e-05
-7.40877e-06
-4.89602e-07
-2.00569e-05
6.42617e-08
-1.7277e-05
-7.08243e-07
4.95496e-06
-1.54212e-06
7.24743e-06
-2.38156e-06
7.28962e-06
-3.42675e-06
6.59692e-06
-4.81194e-06
5.42233e-06
-6.41236e-06
3.47438e-06
-7.60316e-06
2.32025e-07
-7.22561e-06
-4.39068e-06
-4.27705e-06
-9.00944e-06
-8.85892e-06
-1.24256e-06
-8.30135e-07
7.02765e-06
-1.87086e-06
-8.42431e-07
8.71816e-06
-2.23464e-06
-3.30081e-07
7.98348e-06
-2.86617e-06
5.01247e-07
6.7272e-06
-4.15565e-06
1.4782e-06
5.23361e-06
-6.18544e-06
2.41661e-06
3.08756e-06
-8.41727e-06
2.96158e-06
-4.97731e-07
-9.2197e-06
2.58304e-06
-6.17128e-06
-6.49968e-06
1.20494e-06
-1.29344e-05
-2.90426e-07
-1.50682e-05
-2.40805e-06
-1.26586e-06
1.0888e-05
-4.45331e-06
-1.40832e-06
1.57346e-05
-5.98439e-06
-5.30117e-07
1.52892e-05
-7.45053e-06
9.12666e-07
1.30352e-05
-9.26508e-06
2.55218e-06
9.7166e-06
-1.14884e-05
3.97322e-06
4.86434e-06
-1.35317e-05
4.59379e-06
-2.47182e-06
-1.36613e-05
3.75854e-06
-1.31113e-05
-9.28621e-06
1.58449e-06
-2.48115e-05
-4.11149e-07
-2.64425e-05
-3.05348e-06
-1.14261e-06
1.19011e-05
-6.09794e-06
-1.32073e-06
1.80841e-05
-8.38566e-06
-4.64948e-07
1.78819e-05
-1.01139e-05
9.35377e-07
1.52242e-05
-1.16266e-05
2.46692e-06
1.10851e-05
-1.31015e-05
3.67876e-06
5.09308e-06
-1.42872e-05
4.03666e-06
-3.59096e-06
-1.39036e-05
3.09415e-06
-1.59065e-05
-9.47552e-06
1.17219e-06
-2.92821e-05
-3.32746e-07
-3.05003e-05
-3.41343e-06
-6.51878e-07
1.21468e-05
-7.01405e-06
-7.66157e-07
1.87342e-05
-9.64174e-06
-2.54035e-07
1.85621e-05
-1.13264e-05
5.78533e-07
1.5708e-05
-1.24251e-05
1.46198e-06
1.12791e-05
-1.33005e-05
2.11527e-06
4.96034e-06
-1.40162e-05
2.2385e-06
-4.06441e-06
-1.35818e-05
1.63744e-06
-1.69212e-05
-9.43888e-06
5.75945e-07
-3.09508e-05
-1.69093e-07
-3.20778e-05
-3.5667e-06
-6.43763e-13
1.21966e-05
-7.39927e-06
-7.53508e-13
1.88709e-05
-1.01358e-05
-7.54067e-13
1.86701e-05
-1.17341e-05
-6.17282e-13
1.57303e-05
-1.25893e-05
-4.21156e-13
1.12233e-05
-1.31918e-05
-2.69547e-13
4.85331e-06
-1.37688e-05
-1.81933e-13
-4.22455e-06
-1.34195e-05
-1.5483e-13
-1.72653e-05
-9.45404e-06
-1.41769e-13
-3.15546e-05
-1.62616e-13
-3.26628e-05
-3.5667e-06
6.51877e-07
1.21966e-05
-7.39927e-06
7.66155e-07
1.88709e-05
-1.01358e-05
2.54033e-07
1.86701e-05
-1.17341e-05
-5.78535e-07
1.57303e-05
-1.25893e-05
-1.46198e-06
1.12233e-05
-1.31918e-05
-2.11527e-06
4.85331e-06
-1.37688e-05
-2.2385e-06
-4.22455e-06
-1.34195e-05
-1.63744e-06
-1.72653e-05
-9.45404e-06
-5.75945e-07
-3.15546e-05
1.69093e-07
-3.26628e-05
-3.41343e-06
1.14261e-06
1.21468e-05
-7.01405e-06
1.32072e-06
1.87342e-05
-9.64174e-06
4.64947e-07
1.85621e-05
-1.13264e-05
-9.35378e-07
1.5708e-05
-1.24251e-05
-2.46692e-06
1.12791e-05
-1.33005e-05
-3.67876e-06
4.96034e-06
-1.40162e-05
-4.03666e-06
-4.06441e-06
-1.35818e-05
-3.09415e-06
-1.69212e-05
-9.43888e-06
-1.17219e-06
-3.09508e-05
3.32746e-07
-3.20778e-05
-3.05348e-06
1.26586e-06
1.19011e-05
-6.09794e-06
1.40832e-06
1.80841e-05
-8.38566e-06
5.30116e-07
1.78819e-05
-1.01139e-05
-9.12667e-07
1.52242e-05
-1.16266e-05
-2.55218e-06
1.10851e-05
-1.31015e-05
-3.97322e-06
5.09308e-06
-1.42872e-05
-4.59379e-06
-3.59096e-06
-1.39036e-05
-3.75854e-06
-1.59065e-05
-9.47552e-06
-1.58449e-06
-2.92821e-05
4.11149e-07
-3.05003e-05
-2.40805e-06
8.30134e-07
1.0888e-05
-4.45331e-06
8.42431e-07
1.57346e-05
-5.98439e-06
3.30081e-07
1.52892e-05
-7.45053e-06
-5.01248e-07
1.30352e-05
-9.26508e-06
-1.4782e-06
9.7166e-06
-1.14884e-05
-2.41662e-06
4.86434e-06
-1.35317e-05
-2.96158e-06
-2.47182e-06
-1.36613e-05
-2.58304e-06
-1.31113e-05
-9.28621e-06
-1.20494e-06
-2.48115e-05
2.90426e-07
-2.64425e-05
-1.24256e-06
7.02765e-06
-1.87086e-06
8.71816e-06
-2.23464e-06
7.98348e-06
-2.86617e-06
6.7272e-06
-4.15565e-06
5.23361e-06
-6.18544e-06
3.08756e-06
-8.41727e-06
-4.97731e-07
-9.2197e-06
-6.17128e-06
-6.49968e-06
-1.29344e-05
-1.50682e-05
-2.48689e-06
-1.08791e-06
1.06025e-05
-2.2679e-06
-1.07905e-06
9.57823e-06
-1.3322e-06
-3.99839e-07
7.44762e-06
-7.74686e-07
6.5698e-07
5.5127e-06
-1.24827e-06
1.88765e-06
3.81956e-06
-3.09139e-06
3.12927e-06
1.8014e-06
-6.14952e-06
4.02467e-06
-1.46427e-06
-8.67902e-06
3.69217e-06
-7.33395e-06
-7.66769e-06
1.6375e-06
-1.55832e-05
-1.00136e-06
-2.17345e-05
-4.05633e-06
-1.53014e-06
1.53866e-05
-4.75265e-06
-1.66305e-06
1.70149e-05
-3.97851e-06
-6.12895e-07
1.47282e-05
-3.01728e-06
1.02928e-06
1.17017e-05
-2.73716e-06
2.88862e-06
8.43551e-06
-3.63704e-06
4.57032e-06
4.32317e-06
-5.78193e-06
5.50054e-06
-1.80279e-06
-8.07824e-06
4.62268e-06
-1.17455e-05
-7.45491e-06
1.65266e-06
-2.545e-05
-1.36146e-06
-3.35373e-05
-4.67659e-06
-1.30148e-06
1.6349e-05
-6.0879e-06
-1.47458e-06
1.93069e-05
-5.65635e-06
-5.11744e-07
1.73492e-05
-4.48789e-06
9.80762e-07
1.41042e-05
-3.41377e-06
2.59484e-06
1.03047e-05
-3.08439e-06
3.92831e-06
5.40572e-06
-3.95498e-06
4.47294e-06
-1.69277e-06
-5.82659e-06
3.48537e-06
-1.28976e-05
-6.02904e-06
1.05136e-06
-2.84783e-05
-1.00144e-06
-3.68894e-05
-4.9395e-06
-7.16511e-07
1.65013e-05
-6.71414e-06
-8.2712e-07
1.98613e-05
-6.42908e-06
-2.70198e-07
1.80355e-05
-5.07674e-06
5.84142e-07
1.47523e-05
-3.50198e-06
1.47847e-06
1.08207e-05
-2.50432e-06
2.16985e-06
5.72113e-06
-2.82522e-06
2.38192e-06
-1.65249e-06
-4.72842e-06
1.76631e-06
-1.32989e-05
-5.53019e-06
4.82198e-07
-2.95799e-05
-4.77704e-07
-3.81317e-05
-5.03071e-06
-5.67979e-13
1.65108e-05
-6.93759e-06
-6.81668e-13
1.99506e-05
-6.68192e-06
-6.86514e-13
1.81442e-05
-5.21615e-06
-5.58583e-13
1.48487e-05
-3.41398e-06
-3.9869e-13
1.08996e-05
-2.1697e-06
-2.88289e-13
5.77888e-06
-2.35699e-06
-2.17971e-13
-1.65534e-06
-4.39123e-06
-1.59403e-13
-1.34647e-05
-5.45811e-06
-1.34039e-13
-3.00056e-05
-1.5912e-13
-3.85987e-05
-5.03071e-06
7.16509e-07
1.65108e-05
-6.93759e-06
8.27119e-07
1.99506e-05
-6.68192e-06
2.70197e-07
1.81442e-05
-5.21615e-06
-5.84143e-07
1.48487e-05
-3.41398e-06
-1.47847e-06
1.08996e-05
-2.1697e-06
-2.16985e-06
5.77888e-06
-2.35699e-06
-2.38192e-06
-1.65534e-06
-4.39123e-06
-1.76631e-06
-1.34647e-05
-5.45811e-06
-4.82198e-07
-3.00056e-05
4.77703e-07
-3.85987e-05
-4.9395e-06
1.30148e-06
1.65013e-05
-6.71414e-06
1.47458e-06
1.98613e-05
-6.42908e-06
5.11743e-07
1.80355e-05
-5.07674e-06
-9.80763e-07
1.47523e-05
-3.50198e-06
-2.59484e-06
1.08207e-05
-2.50432e-06
-3.92831e-06
5.72113e-06
-2.82522e-06
-4.47294e-06
-1.65249e-06
-4.72842e-06
-3.48537e-06
-1.32989e-05
-5.53019e-06
-1.05136e-06
-2.95799e-05
1.00143e-06
-3.81317e-05
-4.6766e-06
1.53014e-06
1.6349e-05
-6.0879e-06
1.66305e-06
1.93069e-05
-5.65635e-06
6.12894e-07
1.73492e-05
-4.48789e-06
-1.02928e-06
1.41042e-05
-3.41377e-06
-2.88862e-06
1.03047e-05
-3.08439e-06
-4.57032e-06
5.40572e-06
-3.95498e-06
-5.50054e-06
-1.69277e-06
-5.82659e-06
-4.62268e-06
-1.28976e-05
-6.02904e-06
-1.65266e-06
-2.84783e-05
1.36146e-06
-3.68894e-05
-4.05633e-06
1.08791e-06
1.53866e-05
-4.75265e-06
1.07905e-06
1.70149e-05
-3.97851e-06
3.99839e-07
1.47282e-05
-3.01728e-06
-6.56981e-07
1.17017e-05
-2.73716e-06
-1.88765e-06
8.43551e-06
-3.63704e-06
-3.12927e-06
4.32317e-06
-5.78193e-06
-4.02467e-06
-1.80279e-06
-8.07824e-06
-3.69217e-06
-1.17455e-05
-7.45491e-06
-1.6375e-06
-2.545e-05
1.00136e-06
-3.35373e-05
-2.48689e-06
1.06025e-05
-2.2679e-06
9.57823e-06
-1.3322e-06
7.44762e-06
-7.74685e-07
5.5127e-06
-1.24827e-06
3.81956e-06
-3.09139e-06
1.8014e-06
-6.14952e-06
-1.46427e-06
-8.67902e-06
-7.33395e-06
-7.66769e-06
-1.55832e-05
-2.17345e-05
-2.67772e-06
-1.85724e-06
1.51374e-05
4.88595e-07
-1.97936e-06
8.39127e-06
4.51408e-06
-1.19599e-06
4.61814e-06
7.37547e-06
-1.46574e-07
2.79789e-06
8.57175e-06
1.09165e-06
1.53163e-06
7.65605e-06
2.38067e-06
3.36435e-07
4.35291e-06
3.5567e-06
-1.71784e-06
-6.16211e-07
3.46499e-06
-5.82982e-06
-3.47097e-06
9.23733e-07
-1.36522e-05
-2.70784e-06
-2.24976e-05
-4.78841e-06
-2.22907e-06
2.05468e-05
-8.19016e-07
-2.66938e-06
1.37355e-05
5.07663e-06
-1.76886e-06
9.40538e-06
1.02173e-05
-3.06084e-07
6.72053e-06
1.39007e-05
1.36239e-06
4.48143e-06
1.54345e-05
3.00801e-06
2.162e-06
1.40011e-05
4.28539e-06
-1.09807e-06
9.28813e-06
3.86367e-06
-7.43124e-06
3.08024e-06
7.21231e-07
-1.90396e-05
-2.74398e-06
-3.04209e-05
-5.5561e-06
-1.70481e-06
2.13809e-05
-1.78992e-06
-2.16591e-06
1.50373e-05
4.25784e-06
-1.44841e-06
1.0981e-05
1.00747e-05
-2.52975e-07
8.23422e-06
1.48935e-05
1.09547e-06
5.75287e-06
1.79083e-05
2.35343e-06
3.04549e-06
1.78629e-05
3.21231e-06
-5.74292e-07
1.36671e-05
2.77344e-06
-7.6115e-06
5.69427e-06
4.58872e-07
-2.02431e-05
-1.71484e-06
-3.22243e-05
-5.75163e-06
-8.84813e-07
2.14329e-05
-2.12931e-06
-1.15284e-06
1.52259e-05
3.91478e-06
-7.62e-07
1.1305e-05
9.93846e-06
-1.20154e-07