/*--------------------------------*- C++ -*----------------------------------*\
  =========                 |
  \\      /  F ield         | OpenFOAM: The Open Source CFD Toolbox
   \\    /   O peration     | Website:  https://openfoam.org
    \\  /    A nd           | Version:  9
     \\/     M anipulation  |
\*---------------------------------------------------------------------------*/
FoamFile
{
    format      ascii;
    class       volScalarField;
    location    "0.01";
    object      p;
}
// * * * * * * * * * * * * * * * * * * * * * * * * * * * * * * * * * * * * * //

dimensions      [0 2 -2 0 0 0 0];

internalField   nonuniform List<scalar> 
8000
(
2.2502e-08
2.39507
3.42221
3.90306
4.19808
4.39739
4.54486
4.66497
4.77062
4.86935
4.96661
5.06742
5.17764
5.3058
5.4663
5.68626
6.01558
6.55276
7.6511
10.1179
0.00688804
2.52062
3.51649
3.96032
4.23415
4.41982
4.55843
4.67295
4.77488
4.8708
4.9655
5.06343
5.16978
5.29212
5.44347
5.64957
5.95968
6.46904
7.55228
10.1627
0.0509295
2.62353
3.60472
4.024
4.2783
4.44903
4.57691
4.68398
4.78053
4.87217
4.96293
5.05656
5.15757
5.27269
5.41402
5.60689
5.90181
6.39621
7.47745
10.1581
0.0948118
2.68796
3.66401
4.07076
4.31253
4.47263
4.5923
4.69326
4.78515
4.87295
4.96014
5.05
5.14654
5.25604
5.39025
5.57462
5.86095
6.34912
7.4322
10.1387
0.126722
2.72687
3.7007
4.10106
4.33559
4.48906
4.60328
4.69994
4.78839
4.87328
4.95774
5.04477
5.1381
5.24381
5.37357
5.55304
5.83482
6.32017
7.40451
10.1205
0.148061
2.75054
3.72312
4.12008
4.35049
4.49998
4.61073
4.70451
4.79057
4.87336
4.95586
5.04088
5.13203
5.2353
5.36235
5.53901
5.81835
6.30226
7.38707
10.1066
0.161867
2.76508
3.73685
4.13192
4.35999
4.50709
4.61568
4.70758
4.79201
4.87335
4.95448
5.03812
5.12783
5.22954
5.35495
5.53
5.80796
6.29105
7.3759
10.0966
0.170538
2.77395
3.74521
4.13921
4.36592
4.51162
4.61888
4.70958
4.79294
4.87332
4.95353
5.03626
5.12504
5.22578
5.3502
5.5243
5.80148
6.28406
7.3688
10.0899
0.175606
2.77907
3.75002
4.14343
4.3694
4.51431
4.62079
4.71079
4.79351
4.87329
4.95294
5.03512
5.12333
5.22351
5.34736
5.52093
5.79767
6.27994
7.36457
10.0858
0.177935
2.78141
3.75221
4.14536
4.37101
4.51555
4.62169
4.71136
4.79378
4.87328
4.95265
5.03457
5.12252
5.22243
5.34603
5.51936
5.79589
6.27802
7.36258
10.0838
0.177904
2.78138
3.75218
4.14533
4.37099
4.51553
4.62167
4.71134
4.79376
4.87327
4.95264
5.03456
5.12251
5.22243
5.34602
5.51936
5.79588
6.27801
7.36258
10.0838
0.175509
2.77898
3.74993
4.14335
4.36933
4.51424
4.62074
4.71075
4.79347
4.87326
4.95291
5.0351
5.12331
5.22349
5.34735
5.52092
5.79765
6.27993
7.36456
10.0858
0.170368
2.77379
3.74506
4.13907
4.36581
4.51152
4.61879
4.7095
4.79288
4.87327
4.95348
5.03623
5.12501
5.22575
5.35018
5.52428
5.80146
6.28404
7.36879
10.0899
0.161612
2.76484
3.73663
4.13173
4.35982
4.50695
4.61555
4.70747
4.79192
4.87328
4.95442
5.03807
5.12779
5.22951
5.35492
5.52997
5.80794
6.29103
7.37588
10.0966
0.1477
2.7502
3.72281
4.11981
4.35027
4.49979
4.61057
4.70438
4.79045
4.87327
4.95578
5.04081
5.13198
5.23526
5.36231
5.53898
5.81832
6.30224
7.38704
10.1065
0.12622
2.72641
3.70029
4.10071
4.3353
4.48882
4.60308
4.69978
4.78826
4.87317
4.95765
5.04469
5.13804
5.24376
5.37353
5.553
5.83478
6.32014
7.40448
10.1205
0.0941037
2.68732
3.66347
4.07032
4.31218
4.47234
4.59207
4.69307
4.78499
4.87283
4.96004
5.04991
5.14646
5.25597
5.3902
5.57458
5.86092
6.34909
7.43217
10.1387
0.0498689
2.62264
3.60402
4.02346
4.27788
4.4487
4.57665
4.68377
4.78036
4.87203
4.96281
5.05647
5.15749
5.27262
5.41397
5.60685
5.90178
6.39617
7.47742
10.1581
0.00531197
2.51939
3.5156
3.95967
4.23367
4.41945
4.55814
4.67272
4.7747
4.87066
4.96538
5.06332
5.16969
5.29205
5.44341
5.64952
5.95964
6.469
7.55224
10.1626
-0.00196907
2.3935
3.42115
3.90235
4.19756
4.397
4.54455
4.66473
4.77043
4.8692
4.96648
5.06731
5.17755
5.30572
5.46625
5.68621
6.01554
6.55272
7.65107
10.1179
2.10248
2.98901
3.54138
3.91358
4.18091
4.37696
4.52853
4.65367
4.76361
4.86588
4.96627
5.07017
5.18381
5.31562
5.47835
5.69244
5.98849
6.40318
7.0079
7.9588
2.11603
3.03866
3.56322
3.91947
4.18227
4.37674
4.5278
4.65292
4.76297
4.8653
4.96565
5.06934
5.1825
5.31333
5.47423
5.68534
5.97676
6.37875
6.96184
7.97796
2.14191
3.09038
3.59911
3.94277
4.19767
4.38645
4.53354
4.65592
4.76392
4.8645
4.96311
5.06481
5.17546
5.30302
5.45965
5.6657
5.95219
6.34851
6.92671
7.97736
2.16886
3.12962
3.63131
3.96711
4.21514
4.39824
4.54097
4.66007
4.76547
4.86383
4.96029
5.05965
5.16757
5.29183
5.4446
5.64649
5.92944
6.3234
6.90198
7.96733
2.19185
3.15726
3.65576
3.98676
4.22991
4.40866
4.54779
4.66402
4.76707
4.86337
4.95785
5.05515
5.16077
5.28243
5.43231
5.6313
5.91184
6.30439
6.88347
7.95506
2.20933
3.17623
3.67323
4.00135
4.24127
4.41694
4.55339
4.66736
4.76849
4.86308
4.95594
5.05158
5.15542
5.27515
5.42298
5.61999
5.89892
6.29054
6.86978
7.94397
2.22146
3.18908
3.68524
4.01163
4.24949
4.42309
4.55766
4.66997
4.76965
4.86292
4.95453
5.04892
5.15146
5.26981
5.41625
5.61194
5.88981
6.28078
6.86001
7.93528
2.22943
3.19746
3.69312
4.01849
4.25508
4.42736
4.56067
4.67185
4.77051
4.86284
4.95356
5.04707
5.1487
5.26614
5.41165
5.60649
5.88367
6.2742
6.85335
7.92909
2.23422
3.20247
3.69786
4.02266
4.25853
4.43003
4.56258
4.67305
4.77107
4.8628
4.95296
5.0459
5.14698
5.26384
5.4088
5.60313
5.87989
6.27016
6.84923
7.92518
2.23646
3.20481
3.70008
4.02463
4.26017
4.4313
4.5635
4.67364
4.77134
4.86279
4.95266
5.04534
5.14614
5.26274
5.40744
5.60152
5.8781
6.26823
6.84725
7.92329
2.23643
3.20478
3.70005
4.0246
4.26015
4.43128
4.56348
4.67362
4.77133
4.86278
4.95265
5.04533
5.14614
5.26273
5.40743
5.60152
5.87809
6.26822
6.84725
7.92329
2.23413
3.20238
3.69778
4.02259
4.25847
4.42997
4.56253
4.67301
4.77103
4.86277
4.95293
5.04588
5.14696
5.26383
5.40879
5.60312
5.87988
6.27015
6.84922
7.92517
2.22927
3.1973
3.69297
4.01836
4.25497
4.42726
4.56058
4.67177
4.77044
4.86279
4.95352
5.04703
5.14867
5.26611
5.41163
5.60647
5.88365
6.27419
6.85334
7.92908
2.22122
3.18885
3.68502
4.01144
4.24933
4.42295
4.55753
4.66986
4.76956
4.86285
4.95447
5.04887
5.15142
5.26978
5.41622
5.61191
5.88978
6.28076
6.85999
7.93526
2.20899
3.17591
3.67294
4.0011
4.24106
4.41675
4.55324
4.66723
4.76838
4.86299
4.95586
5.05152
5.15537
5.2751
5.42294
5.61995
5.89889
6.29051
6.86976
7.94395
2.19138
3.15682
3.65538
3.98643
4.22964
4.40843
4.5476
4.66386
4.76694
4.86326
4.95776
5.05508
5.16071
5.28238
5.43227
5.63126
5.9118
6.30437
6.88344
7.95503
2.16821
3.12903
3.63081
3.96669
4.2148
4.39797
4.54075
4.65988
4.76532
4.86371
4.96018
5.05956
5.16749
5.29177
5.44455
5.64645
5.9294
6.32337
6.90195
7.9673
2.14101
3.08959
3.59847
3.94227
4.19727
4.38614
4.53328
4.65572
4.76375
4.86437
4.963
5.06472
5.17538
5.30295
5.4596
5.66565
5.95215
6.34848
6.92667
7.97732
2.11478
3.03764
3.56244
3.91888
4.18182
4.3764
4.52752
4.6527
4.76279
4.86515
4.96553
5.06924
5.18241
5.31327
5.47418
5.68529
5.97672
6.37872
6.96181
7.97792
2.1009
2.98777
3.54049
3.91293
4.18043
4.37659
4.52824
4.65344
4.76343
4.86573
4.96615
5.07007
5.18372
5.31554
5.47829
5.69239
5.98845
6.40315
7.00786
7.95877
3.19318
3.47849
3.77399
4.02778
4.2347
4.40167
4.54004
4.6591
4.76612
4.86675
4.96584
5.06799
5.17843
5.30367
5.45239
5.63591
5.86779
6.1551
6.48609
6.80172
3.22138
3.49324
3.77543
4.02364
4.22949
4.39709
4.53643
4.65653
4.76443
4.8658
4.96545
5.06806
5.17884
5.30426
5.45282
5.6358
5.86647
6.15021
6.47129
6.78237
3.25328
3.51974
3.79263
4.03406
4.23544
4.40014
4.53766
4.65657
4.76361
4.86417
4.96293
5.06445
5.17381
5.29737
5.44359
5.62396
5.8523
6.13385
6.45118
6.76327
3.27987
3.54479
3.8124
4.0485
4.24528
4.40639
4.54123
4.65815
4.7636
4.86275
4.96011
5.06005
5.16756
5.28894
5.43268
5.61051
5.83678
6.11693
6.43315
6.74734
3.30027
3.56489
3.82953
4.06193
4.25512
4.41311
4.54544
4.66035
4.76413
4.86179
4.95769
5.0561
5.16192
5.2814
5.42311
5.59894
5.82358
6.10262
6.41834
6.73407
3.31523
3.57999
3.84299
4.07298
4.2636
4.4192
4.54946
4.66262
4.7649
4.86121
4.95581
5.05289
5.15728
5.27525
5.41538
5.58971
5.81312
6.09134
6.40676
6.72344
3.3257
3.5908
3.85289
4.08137
4.27026
4.42414
4.55283
4.66463
4.76569
4.86089
4.95442
5.05044
5.15374
5.27056
5.40953
5.58279
5.80531
6.08293
6.39816
6.71539
3.33269
3.59811
3.85971
4.08726
4.27504
4.42778
4.55538
4.66619
4.76635
4.86073
4.95347
5.04871
5.15121
5.26722
5.4054
5.57792
5.79983
6.07704
6.39213
6.7097
3.33695
3.6026
3.86394
4.09098
4.2781
4.43014
4.55707
4.66724
4.76682
4.86065
4.95288
5.04761
5.1496
5.2651
5.40277
5.57483
5.79637
6.07333
6.38833
6.70609
3.33896
3.60472
3.86595
4.09276
4.27958
4.43129
4.55789
4.66776
4.76706
4.86062
4.9526
5.04708
5.14882
5.26407
5.4015
5.57334
5.7947
6.07153
6.3865
6.70435
3.33893
3.60469
3.86593
4.09273
4.27956
4.43127
4.55788
4.66774
4.76704
4.86061
4.95259
5.04707
5.14881
5.26406
5.4015
5.57334
5.7947
6.07153
6.38649
6.70434
3.33687
3.60251
3.86386
4.09091
4.27804
4.43008
4.55702
4.66719
4.76678
4.86062
4.95286
5.04759
5.14958
5.26508
5.40276
5.57482
5.79636
6.07332
6.38833
6.70609
3.33254
3.59796
3.85957
4.08714
4.27493
4.42768
4.5553
4.66611
4.76629
4.86068
4.95343
5.04868
5.15118
5.2672
5.40538
5.5779
5.79982
6.07703
6.39212
6.70969
3.32548
3.59058
3.85269
4.08119
4.2701
4.424
4.55272
4.66453
4.7656
4.86082
4.95437
5.05039
5.1537
5.27052
5.4095
5.58276
5.80529
6.08291
6.39814
6.71538
3.31492
3.5797
3.84272
4.07275
4.2634
4.41903
4.54931
4.6625
4.76479
4.86112
4.95573
5.05283
5.15723
5.2752
5.41534
5.58968
5.81309
6.09131
6.40674
6.72342
3.29986
3.5645
3.82918
4.06163
4.25486
4.4129
4.54526
4.6602
4.764
4.86169
4.9576
5.05603
5.16186
5.28135
5.42306
5.5989
5.82355
6.10259
6.41832
6.73405
3.27932
3.54428
3.81196
4.04813
4.24497
4.40613
4.54102
4.65798
4.76346
4.86264
4.96001
5.05997
5.16749
5.28889
5.43264
5.61048
5.83675
6.1169
6.43312
6.74731
3.25257
3.5191
3.79208
4.03362
4.23508
4.39985
4.53742
4.65638
4.76345
4.86404
4.96282
5.06436
5.17373
5.2973
5.44354
5.62391
5.85226
6.13382
6.45115
6.76324
3.22048
3.49246
3.77478
4.02313
4.22908
4.39677
4.53617
4.65631
4.76426
4.86566
4.96533
5.06796
5.17876
5.3042
5.45277
5.63576
5.86643
6.15017
6.47125
6.78234
3.19212
3.47759
3.77328
4.02723
4.23427
4.40133
4.53977
4.65887
4.76595
4.86661
4.96572
5.06789
5.17834
5.3036
5.45234
5.63587
5.86775
6.15507
6.48606
6.80169
3.76008
3.84969
4.00682
4.1701
4.31972
4.45267
4.5709
4.67782
4.77707
4.87209
4.96625
5.0629
5.16573
5.27893
5.40723
5.55527
5.72581
5.91438
6.09462
6.19714
3.79091
3.856
4.0053
4.16609
4.31514
4.44861
4.56773
4.67556
4.7756
4.87134
4.9661
5.06329
5.16663
5.28031
5.409
5.55721
5.72751
5.91497
6.08889
6.16846
3.82513
3.87458
4.01644
4.17244
4.31817
4.44964
4.56762
4.67478
4.77437
4.86967
4.96394
5.06051
5.16301
5.27562
5.403
5.54972
5.71847
5.90418
6.07358
6.13987
3.85161
3.89374
4.03051
4.18222
4.32443
4.45327
4.5694
4.67521
4.77375
4.86811
4.96143
5.05693
5.15819
5.26936
5.39512
5.54015
5.70729
5.89141
6.05814
6.11889
3.87054
3.90969
4.04338
4.19197
4.33131
4.4578
4.57205
4.6764
4.77371
4.86699
4.95925
5.05363
5.15366
5.26346
5.38776
5.53134
5.69713
5.88001
6.04522
6.10398
3.88383
3.92205
4.05398
4.20047
4.3377
4.46228
4.57492
4.67791
4.77406
4.86629
4.95753
5.05087
5.14981
5.25844
5.38155
5.52394
5.68867
5.87064
6.03503
6.09326
3.893
3.9311
4.06208
4.20721
4.34297
4.46614
4.57752
4.67939
4.77455
4.86588
4.95626
5.04874
5.14678
5.2545
5.37666
5.51817
5.68212
5.86344
6.0274
6.08562
3.89909
3.93735
4.06783
4.21212
4.34692
4.46912
4.57958
4.68062
4.77503
4.86567
4.95538
5.04721
5.14458
5.25162
5.37312
5.51399
5.67739
5.85829
6.02202
6.08038
3.90281
3.94124
4.07146
4.21529
4.34951
4.47111
4.58098
4.68148
4.7754
4.86556
4.95483
5.04622
5.14316
5.24975
5.37082
5.51129
5.67435
5.85499
6.0186
6.07709
3.90456
3.9431
4.07322
4.21683
4.35078
4.47209
4.58168
4.68192
4.77558
4.86552
4.95456
5.04573
5.14245
5.24883
5.36969
5.50997
5.67286
5.85338
6.01695
6.07551
3.90454
3.94307
4.07319
4.21681
4.35076
4.47207
4.58166
4.6819
4.77557
4.86551
4.95456
5.04573
5.14245
5.24883
5.36968
5.50997
5.67286
5.85338
6.01694
6.0755
3.90273
3.94117
4.07139
4.21522
4.34945
4.47105
4.58093
4.68144
4.77536
4.86554
4.95481
5.0462
5.14314
5.24974
5.3708
5.51128
5.67434
5.85498
6.0186
6.07708
3.89895
3.93722
4.0677
4.21201
4.34682
4.46903
4.5795
4.68055
4.77498
4.86562
4.95534
5.04717
5.14455
5.25159
5.3731
5.51397
5.67737
5.85828
6.02201
6.08037
3.89279
3.93091
4.0619
4.20705
4.34283
4.46602
4.57741
4.6793
4.77448
4.86582
4.9562
5.04869
5.14674
5.25446
5.37664
5.51815
5.68209
5.86342
6.02738
6.08561
3.88356
3.92179
4.05374
4.20026
4.33751
4.46212
4.57478
4.67779
4.77396
4.8662
4.95746
5.05081
5.14976
5.2584
5.38151
5.52392
5.68865
5.87061
6.03501
6.09324
3.87018
3.90935
4.04307
4.1917
4.33108
4.4576
4.57189
4.67626
4.7736
4.86689
4.95916
5.05355
5.1536
5.26341
5.38772
5.5313
5.6971
5.87998
6.0452
6.10396
3.85115
3.89331
4.03013
4.1819
4.32415
4.45304
4.5692
4.67505
4.77361
4.868
4.96133
5.05685
5.15813
5.2693
5.39507
5.54011
5.70725
5.89139
6.05811
6.11887
3.82457
3.87406
4.01598
4.17206
4.31786
4.44938
4.5674
4.6746
4.77422
4.86955
4.96384
5.06042
5.16294
5.27557
5.40296
5.54969
5.71844
5.90415
6.07355
6.13984
3.79026
3.8554
4.00479
4.16567
4.31479
4.44832
4.56749
4.67536
4.77545
4.87121
4.96599
5.0632
5.16655
5.28025
5.40895
5.55717
5.72748
5.91494
6.08886
6.16843
3.75936
3.84903
4.00626
4.16965
4.31935
4.45237
4.57065
4.67762
4.7769
4.87195
4.96613
5.06281
5.16565
5.27887
5.40718
5.55523
5.72578
5.91435
6.09459
6.19712
4.10425
4.12313
4.20362
4.30598
4.41163
4.51438
4.61211
4.70487
4.79386
4.88077
4.96752
5.05619
5.14896
5.24801
5.35515
5.47089
5.59283
5.71277
5.80712
5.83029
4.132
4.1268
4.20148
4.30264
4.40812
4.51136
4.60979
4.70325
4.79288
4.88035
4.96762
5.05681
5.15012
5.24978
5.35757
5.4739
5.59607
5.71548
5.8043
5.80215
4.16386
4.1413
4.20949
4.30709
4.41013
4.51192
4.60954
4.70255
4.79188
4.87912
4.96613
5.055
5.14791
5.24707
5.35427
5.46984
5.59087
5.70845
5.79194
5.77217
4.1885
4.15683
4.2202
4.31432
4.41461
4.51443
4.61068
4.7027
4.79128
4.87787
4.96425
5.05243
5.14456
5.24284
5.34905
5.4635
5.58318
5.69892
5.77875
5.75007
4.20576
4.16996
4.2303
4.32178
4.41977
4.51775
4.61257
4.70348
4.79115
4.87693
4.96254
5.04993
5.1412
5.23854
5.34375
5.45712
5.5756
5.68991
5.76756
5.73495
4.21763
4.18027
4.23885
4.3285
4.42474
4.5212
4.61473
4.70457
4.79134
4.87631
4.96115
5.04775
5.13821
5.23468
5.33898
5.45142
5.56894
5.68223
5.75867
5.72458
4.22569
4.18791
4.24553
4.33397
4.42898
4.52427
4.61677
4.70571
4.79168
4.87594
4.96009
5.04601
5.13577
5.23152
5.33508
5.44678
5.56357
5.67617
5.75198
5.71747
4.231
4.19324
4.25035
4.33804
4.43222
4.5267
4.61844
4.7067
4.79205
4.87573
4.95934
5.04473
5.13394
5.22914
5.33215
5.44331
5.5596
5.67176
5.74725
5.7127
4.23423
4.19658
4.25344
4.34071
4.43439
4.52835
4.6196
4.7074
4.79233
4.87563
4.95886
5.04389
5.13274
5.22757
5.33021
5.44102
5.557
5.6689
5.74423
5.70976
4.23576
4.19818
4.25494
4.34201
4.43546
4.52917
4.62018
4.70776
4.79248
4.87558
4.95863
5.04347
5.13214
5.22679
5.32925
5.43989
5.55572
5.6675
5.74277
5.70834
4.23574
4.19816
4.25491
4.34199
4.43544
4.52916
4.62017
4.70775
4.79247
4.87557
4.95862
5.04346
5.13213
5.22678
5.32924
5.43989
5.55572
5.66749
5.74276
5.70834
4.23416
4.19651
4.25337
4.34065
4.43434
4.5283
4.61956
4.70736
4.7923
4.8756
4.95884
5.04387
5.13272
5.22756
5.3302
5.44101
5.55699
5.66889
5.74423
5.70975
4.23088
4.19312
4.25023
4.33794
4.43213
4.52662
4.61837
4.70664
4.792
4.87569
4.9593
5.04469
5.13392
5.22912
5.33213
5.44329
5.55959
5.67175
5.74724
5.71269
4.22551
4.18774
4.24537
4.33383
4.42885
4.52416
4.61667
4.70563
4.79161
4.87588
4.96004
5.04596
5.13573
5.23149
5.33505
5.44675
5.56355
5.67615
5.75196
5.71746
4.21739
4.18004
4.23864
4.32831
4.42458
4.52105
4.61461
4.70447
4.79125
4.87623
4.96108
5.04769
5.13816
5.23464
5.33895
5.4514
5.56891
5.68221
5.75865
5.72456
4.20546
4.16968
4.23004
4.32155
4.41957
4.51758
4.61242
4.70335
4.79104
4.87684
4.96246
5.04986
5.14115
5.2385
5.34371
5.45709
5.57557
5.68989
5.76754
5.73493
4.18813
4.15648
4.21988
4.31405
4.41437
4.51423
4.6105
4.70255
4.79116
4.87777
4.96416
5.05235
5.1445
5.24279
5.34901
5.46347
5.58315
5.69889
5.77873
5.75005
4.16343
4.14089
4.20913
4.30677
4.40985
4.51169
4.60935
4.70238
4.79175
4.879
4.96603
5.05491
5.14784
5.24702
5.35423
5.4698
5.59083
5.70842
5.79191
5.77214
4.1315
4.12634
4.20107
4.30229
4.40783
4.51111
4.60958
4.70308
4.79273
4.88023
4.96752
5.05672
5.15005
5.24972
5.35753
5.47386
5.59603
5.71545
5.80427
5.80213
4.10372
4.12264
4.20318
4.3056
4.41131
4.51412
4.61189
4.70469
4.79372
4.88064
4.96741
5.0561
5.14889
5.24795
5.3551
5.47085
5.59279
5.71274
5.8071
5.83026
4.32587
4.32067
4.36125
4.42534
4.49954
4.57794
4.65721
4.73589
4.81374
4.89119
4.96906
5.0483
5.12987
5.21443
5.30194
5.39082
5.47698
5.55262
5.60098
5.59619
4.34794
4.32296
4.35917
4.4227
4.49699
4.57584
4.65566
4.73485
4.81316
4.89105
4.96933
5.049
5.13105
5.21618
5.30435
5.39388
5.48037
5.55568
5.59937
5.5729
4.37489
4.33451
4.36533
4.42622
4.49873
4.57652
4.65572
4.73456
4.81265
4.89038
4.96853
5.04806
5.12995
5.21489
5.30282
5.3919
5.47742
5.55087
5.58934
5.54622
4.39636
4.34726
4.37386
4.43198
4.50236
4.57864
4.65678
4.73487
4.81239
4.88965
4.96736
5.04646
5.12788
5.21229
5.29959
5.38785
5.47214
5.54365
5.57824
5.52584
4.41154
4.35819
4.38204
4.43797
4.50652
4.58135
4.65838
4.73559
4.81241
4.88907
4.96622
5.04476
5.12559
5.20936
5.29595
5.38335
5.46652
5.53651
5.56868
5.51183
4.42195
4.36685
4.38906
4.44344
4.51055
4.58415
4.66016
4.73652
4.81263
4.88866
4.96523
5.04318
5.12341
5.20655
5.29244
5.37907
5.46134
5.53025
5.56104
5.50234
4.42898
4.37331
4.39461
4.44794
4.51402
4.58667
4.66184
4.73748
4.81295
4.88841
4.96444
5.04186
5.12155
5.20412
5.28942
5.37543
5.45703
5.52522
5.55528
5.49594
4.43359
4.37783
4.39865
4.45133
4.51671
4.58868
4.66322
4.7383
4.81327
4.88827
4.96386
5.04085
5.12011
5.20224
5.28708
5.37263
5.45376
5.52151
5.5512
5.49172
4.43638
4.38069
4.40126
4.45356
4.51852
4.59006
4.66419
4.73889
4.81352
4.88819
4.96348
5.04018
5.11914
5.20096
5.2855
5.37074
5.45159
5.51908
5.54859
5.48913
4.4377
4.38206
4.40254
4.45467
4.51942
4.59075
4.66468
4.73919
4.81364
4.88816
4.96329
5.03984
5.11864
5.20032
5.2847
5.3698
5.45051
5.51788
5.54732
5.4879
4.43768
4.38204
4.40252
4.45465
4.5194
4.59073
4.66466
4.73918
4.81363
4.88815
4.96328
5.03983
5.11864
5.20031
5.2847
5.3698
5.45051
5.51788
5.54732
5.4879
4.43632
4.38063
4.40121
4.45351
4.51847
4.59001
4.66415
4.73886
4.81349
4.88817
4.96346
5.04016
5.11912
5.20095
5.28549
5.37073
5.45158
5.51907
5.54858
5.48913
4.43348
4.37773
4.39855
4.45124
4.51663
4.58861
4.66316
4.73825
4.81323
4.88823
4.96382
5.04082
5.12009
5.20222
5.28706
5.37261
5.45375
5.5215
5.55119
5.49171
4.42882
4.37316
4.39447
4.44782
4.51391
4.58657
4.66175
4.7374
4.81289
4.88836
4.96439
5.04182
5.12152
5.20409
5.28939
5.37541
5.45701
5.52521
5.55527
5.49593
4.42175
4.36666
4.38888
4.44327
4.51041
4.58403
4.66005
4.73643
4.81255
4.88859
4.96517
5.04313
5.12337
5.20651
5.29241
5.37905
5.46132
5.53024
5.56103
5.50232
4.41129
4.35795
4.38182
4.43778
4.50634
4.5812
4.65824
4.73547
4.81231
4.88898
4.96615
5.0447
5.12554
5.20932
5.29591
5.38332
5.4665
5.53649
5.56866
5.51181
4.39606
4.34697
4.3736
4.43175
4.50216
4.57846
4.65663
4.73473
4.81228
4.88956
4.96728
5.04639
5.12782
5.21225
5.29955
5.38782
5.47211
5.54362
5.57822
5.52583
4.37455
4.33418
4.36503
4.42596
4.4985
4.57632
4.65555
4.73441
4.81253
4.89028
4.96843
5.04798
5.12989
5.21485
5.30278
5.39186
5.47739
5.55084
5.58932
5.5462
4.34756
4.3226
4.35884
4.42241
4.49674
4.57563
4.65547
4.73469
4.81303
4.89094
4.96923
5.04892
5.13099
5.21613
5.30431
5.39384
5.48034
5.55565
5.59935
5.57288
4.32547
4.32029
4.36091
4.42503
4.49928
4.57771
4.65702
4.73573
4.81361
4.89108
4.96896
5.04822
5.1298
5.21438
5.3019
5.39079
5.47695
5.55259
5.60095
5.59617
4.47562
4.46427
4.48477
4.52548
4.57797
4.6377
4.70145
4.76726
4.83419
4.90187
4.97032
5.03968
5.10998
5.18092
5.25144
5.31919
5.3801
5.42815
5.45282
5.4406
4.49221
4.46575
4.48294
4.52339
4.57608
4.63621
4.70039
4.7666
4.83386
4.90187
4.97063
5.04033
5.11102
5.18243
5.2535
5.3218
5.383
5.4308
5.45179
5.42286
4.51384
4.47494
4.48781
4.52628
4.57766
4.63702
4.70075
4.76668
4.83377
4.90167
4.97036
5.04
5.11064
5.18199
5.25294
5.3209
5.38122
5.42728
5.4437
5.40105
4.53171
4.48536
4.49471
4.53098
4.58073
4.63895
4.70186
4.7672
4.83386
4.90141
4.9698
5.03916
5.10951
5.18052
5.25104
5.31832
5.37749
5.42168
5.43451
5.38371
4.5446
4.49443
4.50142
4.5359
4.5842
4.64128
4.70332
4.76798
4.83409
4.90118
4.96917
5.03813
5.10807
5.17862
5.24859
5.31515
5.37329
5.41599
5.4265
5.37155
4.55351
4.50167
4.50722
4.54041
4.58754
4.64364
4.70487
4.76886
4.83442
4.90102
4.96856
5.03708
5.10657
5.17664
5.24606
5.31196
5.36926
5.41091
5.42006
5.36328
4.55954
4.50711
4.51184
4.54415
4.59043
4.64576
4.70631
4.76971
4.83476
4.90092
4.96803
5.03614
5.10521
5.17484
5.24378
5.30914
5.36582
5.40678
5.41519
5.35773
4.56349
4.51093
4.51523
4.54697
4.59267
4.64744
4.70748
4.77043
4.83507
4.90086
4.96762
5.03539
5.10412
5.1734
5.24196
5.30692
5.36317
5.40369
5.41172
5.35408
4.56589
4.51336
4.51743
4.54885
4.59419
4.6486
4.7083
4.77094
4.8353
4.90082
4.96735
5.03488
5.10337
5.17239
5.2407
5.3054
5.36139
5.40166
5.4095
5.35186
4.56702
4.51452
4.51851
4.54978
4.59494
4.64918
4.70871
4.7712
4.83542
4.90081
4.96721
5.03461
5.10298
5.17188
5.24006
5.30463
5.36049
5.40065
5.40842
5.3508
4.567
4.5145
4.51849
4.54976
4.59493
4.64916
4.7087
4.77119
4.83541
4.9008
4.9672
5.03461
5.10298
5.17188
5.24005
5.30462
5.36049
5.40065
5.40842
5.3508
4.56584
4.5133
4.51738
4.5488
4.59414
4.64856
4.70826
4.77091
4.83528
4.9008
4.96733
5.03486
5.10336
5.17238
5.24069
5.30539
5.36138
5.40165
5.4095
5.35185
4.5634
4.51084
4.51515
4.5469
4.5926
4.64738
4.70742
4.77038
4.83503
4.90082
4.96759
5.03537
5.1041
5.17338
5.24194
5.3069
5.36316
5.40368
5.41171
5.35408
4.55941
4.50698
4.51173
4.54404
4.59033
4.64567
4.70623
4.76965
4.83471
4.90087
4.96799
5.0361
5.10518
5.17482
5.24376
5.30912
5.3658
5.40676
5.41517
5.35772
4.55334
4.50151
4.50707
4.54027
4.58742
4.64353
4.70477
4.76878
4.83434
4.90096
4.9685
5.03703
5.10653
5.17661
5.24603
5.31194
5.36924
5.4109
5.42005
5.36327
4.54439
4.49423
4.50123
4.53574
4.58405
4.64115
4.7032
4.76788
4.83401
4.90111
4.9691
5.03807
5.10802
5.17858
5.24856
5.31513
5.37326
5.41597
5.42649
5.37153
4.53147
4.48512
4.4945
4.53079
4.58056
4.63879
4.70172
4.76708
4.83376
4.90132
4.96973
5.0391
5.10946
5.18048
5.251
5.31829
5.37746
5.42166
5.4345
5.3837
4.51356
4.47467
4.48757
4.52606
4.57746
4.63685
4.7006
4.76655
4.83366
4.90157
4.97028
5.03993
5.11059
5.18195
5.25291
5.32087
5.3812
5.42726
5.44369
5.40104
4.49191
4.46546
4.48268
4.52316
4.57587
4.63603
4.70023
4.76646
4.83375
4.90177
4.97055
5.04025
5.11096
5.18238
5.25346
5.32177
5.38297
5.43078
5.45177
5.42285
4.4753
4.46397
4.48449
4.52523
4.57775
4.63751
4.70128
4.76712
4.83407
4.90177
4.97023
5.0396
5.10992
5.18087
5.2514
5.31916
5.38007
5.42813
5.4528
5.44059
4.5818
4.57038
4.5808
4.60733
4.64505
4.69083
4.742
4.79664
4.8535
4.9118
4.97103
5.03078
5.0905
5.14934
5.20581
5.25749
5.30096
5.33205
5.34465
5.33218
4.59411
4.57138
4.57927
4.60565
4.64358
4.68971
4.74124
4.79618
4.8533
4.91184
4.97131
5.03131
5.09134
5.15055
5.20744
5.25956
5.30326
5.33415
5.34391
5.31904
4.61106
4.57864
4.58312
4.60798
4.64496
4.69053
4.74173
4.79647
4.85346
4.91193
4.97136
5.03134
5.09137
5.15055
5.20736
5.25917
5.30209
5.33145
5.33745
5.3019
4.62555
4.58708
4.5887
4.61183
4.64755
4.69226
4.74283
4.79712
4.85379
4.91199
4.97121
5.03101
5.09083
5.14978
5.20624
5.25747
5.29936
5.32704
5.32997
5.28777
4.63623
4.59453
4.59418
4.61587
4.65045
4.69427
4.74417
4.79794
4.85418
4.91204
4.97095
5.03046
5.08998
5.14858
5.20461
5.25521
5.29616
5.32249
5.32337
5.27765
4.6437
4.60055
4.59898
4.6196
4.65324
4.69629
4.74555
4.79878
4.85459
4.91207
4.97064
5.02981
5.089
5.14722
5.20279
5.25283
5.29302
5.31839
5.31803
5.2707
4.64879
4.60509
4.60282
4.62271
4.65565
4.69808
4.7468
4.79957
4.85497
4.91209
4.97034
5.02919
5.08805
5.14592
5.20109
5.25065
5.29029
5.31501
5.31397
5.26602
4.65215
4.60831
4.60565
4.62507
4.65753
4.6995
4.7478
4.80021
4.85528
4.91211
4.97008
5.02867
5.08725
5.14483
5.19969
5.2489
5.28816
5.31247
5.31107
5.26294
4.65419
4.61035
4.6075
4.62664
4.6588
4.70047
4.7485
4.80066
4.85551
4.91213
4.9699
5.02829
5.08668
5.14406
5.1987
5.24769
5.28671
5.31079
5.30922
5.26107
4.65515
4.61133
4.60841
4.62741
4.65944
4.70097
4.74886
4.80088
4.85562
4.91213
4.9698
5.0281
5.08639
5.14366
5.1982
5.24707
5.28597
5.30996
5.30831
5.26017
4.65513
4.61132
4.60839
4.6274
4.65942
4.70095
4.74885
4.80087
4.85561
4.91212
4.96979
5.02809
5.08638
5.14366
5.19819
5.24707
5.28597
5.30996
5.30831
5.26017
4.65414
4.6103
4.60746
4.6266
4.65876
4.70044
4.74848
4.80063
4.85548
4.91211
4.96988
5.02828
5.08667
5.14405
5.19869
5.24768
5.2867
5.31079
5.30921
5.26106
4.65207
4.60823
4.60558
4.625
4.65747
4.69944
4.74776
4.80017
4.85525
4.91208
4.97005
5.02864
5.08723
5.14481
5.19967
5.24889
5.28814
5.31246
5.31107
5.26294
4.64868
4.60499
4.60272
4.62261
4.65557
4.698
4.74673
4.79951
4.85492
4.91205
4.9703
5.02916
5.08802
5.14589
5.20107
5.25063
5.29027
5.315
5.31396
5.26601
4.64356
4.60041
4.59885
4.61948
4.65313
4.69619
4.74547
4.79871
4.85452
4.91201
4.97059
5.02977
5.08897
5.14719
5.20277
5.2528
5.293
5.31837
5.31802
5.27069
4.63606
4.59437
4.59403
4.61573
4.65032
4.69416
4.74407
4.79785
4.8541
4.91197
4.97089
5.03041
5.08994
5.14855
5.20458
5.25518
5.29614
5.32248
5.32336
5.27764
4.62535
4.58689
4.58852
4.61166
4.6474
4.69212
4.74272
4.79702
4.8537
4.91192
4.97115
5.03095
5.09079
5.14974
5.20621
5.25744
5.29934
5.32702
5.32996
5.28776
4.61084
4.57843
4.58292
4.6078
4.64479
4.69039
4.7416
4.79635
4.85336
4.91184
4.97129
5.03129
5.09132
5.15051
5.20733
5.25914
5.30207
5.33143
5.33744
5.30189
4.59387
4.57115
4.57905
4.60545
4.6434
4.68956
4.7411
4.79606
4.8532
4.91175
4.97123
5.03125
5.0913
5.15051
5.20741
5.25953
5.30324
5.33413
5.3439
5.31903
4.58155
4.57014
4.58058
4.60712
4.64487
4.69067
4.74186
4.79652
4.85339
4.91171
4.97095
5.03071
5.09045
5.1493
5.20577
5.25746
5.30094
5.33203
5.34464
5.33217
4.65993
4.65011
4.65545
4.6733
4.70098
4.73642
4.7776
4.82281
4.87076
4.92047
4.97115
5.02205
5.07231
5.1208
5.16596
5.20564
5.23716
5.25783
5.26429
5.25358
4.66914
4.6508
4.65419
4.67193
4.69979
4.73554
4.777
4.82245
4.87061
4.9205
4.97136
5.02246
5.07295
5.12172
5.16721
5.20722
5.23893
5.25942
5.26371
5.24382
4.68237
4.65654
4.65723
4.6738
4.70094
4.73629
4.77751
4.82282
4.87088
4.92073
4.97156
5.02265
5.07315
5.12191
5.16731
5.20704
5.23808
5.2573
5.25859
5.23052
4.69398
4.66332
4.66172
4.67692
4.7031
4.73778
4.77854
4.8235
4.87132
4.92097
4.97165
5.02261
5.07296
5.12153
5.16665
5.20587
5.23601
5.2538
5.25256
5.21924
4.7027
4.66941
4.66619
4.68024
4.70551
4.7395
4.77974
4.8243
4.87179
4.92118
4.97163
5.02236
5.07248
5.12078
5.16553
5.20421
5.23353
5.25015
5.24719
5.21101
4.70889
4.67436
4.67014
4.68331
4.70784
4.74122
4.78095
4.82509
4.87224
4.92134
4.97153
5.022
5.07186
5.11985
5.16422
5.20241
5.23107
5.24684
5.24281
5.2053
4.71314
4.67814
4.67332
4.68589
4.70985
4.74273
4.78203
4.82581
4.87264
4.92145
4.97138
5.02161
5.07121
5.11891
5.16295
5.20073
5.2289
5.2441
5.23947
5.20142
4.71596
4.68083
4.67568
4.68786
4.71142
4.74393
4.7829
4.82638
4.87295
4.92153
4.97125
5.02126
5.07064
5.11811
5.16188
5.19936
5.22719
5.24203
5.23708
5.19887
4.71768
4.68254
4.67723
4.68917
4.71249
4.74475
4.7835
4.82678
4.87317
4.92158
4.97114
5.021
5.07022
5.11752
5.16112
5.1984
5.22602
5.24066
5.23555
5.19731
4.71849
4.68336
4.67798
4.68982
4.71302
4.74517
4.78381
4.82698
4.87328
4.9216
4.97108
5.02086
5.07
5.11722
5.16072
5.19791
5.22543
5.23997
5.2348
5.19657
4.71848
4.68335
4.67797
4.68981
4.71301
4.74516
4.7838
4.82698
4.87327
4.9216
4.97108
5.02086
5.07
5.11721
5.16072
5.1979
5.22543
5.23997
5.2348
5.19657
4.71764
4.6825
4.67719
4.68913
4.71245
4.74473
4.78348
4.82676
4.87315
4.92157
4.97113
5.02099
5.07021
5.11751
5.16111
5.19839
5.22601
5.24065
5.23554
5.19731
4.71589
4.68076
4.67562
4.6878
4.71137
4.74388
4.78286
4.82635
4.87292
4.92151
4.97122
5.02124
5.07062
5.11809
5.16186
5.19935
5.22718
5.24203
5.23708
5.19887
4.71305
4.67805
4.67324
4.68581
4.70978
4.74266
4.78198
4.82576
4.87259
4.92141
4.97135
5.02159
5.07118
5.11889
5.16293
5.20071
5.22889
5.24409
5.23947
5.20142
4.70877
4.67425
4.67003
4.68321
4.70775
4.74113
4.78088
4.82503
4.87218
4.92129
4.97148
5.02197
5.07183
5.11982
5.1642
5.20239
5.23105
5.24683
5.24281
5.20529
4.70256
4.66928
4.66607
4.68012
4.7054
4.73941
4.77966
4.82422
4.87172
4.92112
4.97158
5.02232
5.07245
5.12075
5.1655
5.20419
5.23351
5.25014
5.24718
5.21101
4.69382
4.66317
4.66157
4.67678
4.70297
4.73766
4.77844
4.82342
4.87124
4.9209
4.9716
5.02256
5.07292
5.12149
5.16662
5.20584
5.23599
5.25378
5.25255
5.21924
4.68219
4.65636
4.65707
4.67365
4.7008
4.73616
4.7774
4.82272
4.8708
4.92065
4.9715
5.0226
5.07311
5.12187
5.16728
5.20702
5.23806
5.25728
5.25858
5.23051
4.66895
4.65062
4.65401
4.67177
4.69964
4.73541
4.77689
4.82235
4.87052
4.92042
4.9713
5.02241
5.07291
5.12169
5.16718
5.20719
5.23891
5.25941
5.2637
5.24381
4.65973
4.64991
4.65526
4.67313
4.70082
4.73628
4.77748
4.8227
4.87067
4.92039
4.97108
5.02199
5.07226
5.12077
5.16593
5.20561
5.23714
5.25781
5.26428
5.25357
4.7189
4.71083
4.71359
4.72605
4.74681
4.77461
4.80792
4.84532
4.88561
4.92774
4.97079
5.01385
5.05593
5.09582
5.13205
5.16281
5.18613
5.20033
5.20365
5.19493
4.72593
4.71135
4.71257
4.72494
4.74585
4.77389
4.80743
4.84503
4.88547
4.92774
4.97094
5.01416
5.0564
5.09651
5.13299
5.164
5.18747
5.20153
5.20319
5.18756
4.73631
4.71589
4.71498
4.72642
4.74679
4.77452
4.80789
4.84538
4.88576
4.928
4.97118
5.0144
5.05665
5.09673
5.13313
5.16391
5.18681
5.19982
5.19911
5.17721
4.74561
4.72134
4.71859
4.72894
4.74855
4.77578
4.8088
4.84603
4.88622
4.92832
4.97138
5.01449
5.05663
5.09656
5.13271
5.16305
5.18519
5.19702
5.19428
5.16825
4.7527
4.72629
4.72223
4.73165
4.75054
4.77723
4.80984
4.84676
4.8867
4.9286
4.97148
5.01442
5.05638
5.09609
5.13192
5.1618
5.18325
5.1941
5.18993
5.16161
4.75779
4.73036
4.72547
4.73418
4.75247
4.77867
4.81089
4.84748
4.88716
4.92882
4.9715
5.01424
5.05599
5.09544
5.13097
5.16042
5.1813