/*--------------------------------*- C++ -*----------------------------------*\
  =========                 |
  \\      /  F ield         | OpenFOAM: The Open Source CFD Toolbox
   \\    /   O peration     | Website:  https://openfoam.org
    \\  /    A nd           | Version:  9
     \\/     M anipulation  |
\*---------------------------------------------------------------------------*/
FoamFile
{
    format      ascii;
    class       volScalarField;
    location    "0.01";
    object      p;
}
// * * * * * * * * * * * * * * * * * * * * * * * * * * * * * * * * * * * * * //

dimensions      [0 2 -2 0 0 0 0];

internalField   nonuniform List<scalar> 
1000
(
-2.22198e-09
0.00168119
0.00522687
0.0102366
0.016177
0.0224456
0.0284138
0.0334693
0.0370609
0.0387696
-3.4183e-06
0.00166521
0.00521213
0.0102271
0.016174
0.0224496
0.0284247
0.0334857
0.0370786
0.0387747
-3.36183e-06
0.00166206
0.00520857
0.0102247
0.0161734
0.0224513
0.0284284
0.0334906
0.0370831
0.0387759
-2.55602e-06
0.00166179
0.0052078
0.0102241
0.0161735
0.0224522
0.0284299
0.0334925
0.0370846
0.0387761
-1.86694e-06
0.00166208
0.00520783
0.0102241
0.0161736
0.0224525
0.0284304
0.033493
0.0370848
0.038776
-2.12032e-06
0.00166182
0.0052076
0.0102239
0.0161735
0.0224524
0.0284303
0.0334929
0.0370848
0.038776
-3.41528e-06
0.00166101
0.00520717
0.0102236
0.0161732
0.0224519
0.0284298
0.0334923
0.0370845
0.0387761
-5.27741e-06
0.00166058
0.00520742
0.0102239
0.0161729
0.022451
0.0284281
0.0334905
0.0370831
0.0387759
-6.81313e-06
0.00166249
0.00521022
0.0102259
0.0161732
0.0224491
0.0284244
0.0334855
0.0370786
0.0387746
-4.66225e-06
0.0016776
0.00522445
0.0102352
0.016176
0.022445
0.0284135
0.0334691
0.0370608
0.0387696
-0.00163241
0.000203289
0.00406335
0.00949266
0.0159124
0.0226821
0.029137
0.0346244
0.0385434
0.040415
-0.00161895
0.000201659
0.00406002
0.00949048
0.015912
0.0226839
0.029141
0.0346301
0.038548
0.0404042
-0.00161326
0.000203204
0.00406012
0.0094904
0.0159124
0.0226849
0.0291426
0.0346318
0.0385484
0.0404007
-0.00160977
0.000205152
0.00406109
0.00949095
0.0159129
0.0226854
0.0291432
0.0346322
0.038548
0.0403988
-0.00160808
0.000206312
0.00406177
0.00949136
0.0159131
0.0226856
0.0291433
0.0346321
0.0385475
0.0403979
-0.00160834
0.000206053
0.00406155
0.00949119
0.015913
0.0226855
0.0291433
0.0346321
0.0385475
0.0403979
-0.00161059
0.000204413
0.00406048
0.0094905
0.0159125
0.0226852
0.0291431
0.0346321
0.0385479
0.0403988
-0.00161485
0.000201957
0.00405907
0.00948965
0.0159119
0.0226845
0.0291424
0.0346316
0.0385483
0.0404006
-0.0016218
0.000199104
0.0040582
0.00948929
0.0159113
0.0226834
0.0291407
0.03463
0.0385479
0.0404042
-0.00163629
0.000200288
0.00406123
0.00949129
0.0159115
0.0226815
0.0291366
0.0346242
0.0385433
0.040415
-0.00548638
-0.00326887
0.00134287
0.00776009
0.0152969
0.0232297
0.0308186
0.0373232
0.042026
0.0443006
-0.00546468
-0.00326533
0.0013439
0.00776107
0.0152979
0.0232311
0.0308206
0.0373261
0.0420273
0.0442841
-0.00545343
-0.00325934
0.00134743
0.00776315
0.0152991
0.0232316
0.0308205
0.0373251
0.0420246
0.0442767
-0.00544655
-0.00325451
0.00135058
0.00776505
0.0153
0.0232317
0.03082
0.0373239
0.0420222
0.0442726
-0.00544327
-0.00325196
0.00135233
0.0077661
0.0153005
0.0232317
0.0308196
0.037323
0.0420208
0.0442706
-0.00544348
-0.00325216
0.00135216
0.00776597
0.0153004
0.0232316
0.0308195
0.037323
0.0420208
0.0442706
-0.00544722
-0.00325512
0.00135007
0.00776466
0.0152998
0.0232315
0.0308199
0.0373238
0.0420222
0.0442726
-0.00545462
-0.00326039
0.00134655
0.00776249
0.0152986
0.0232312
0.0308203
0.037325
0.0420245
0.0442767
-0.0054666
-0.00326697
0.00134254
0.0077601
0.0152973
0.0232306
0.0308204
0.0373259
0.0420272
0.044284
-0.00548892
-0.00327106
0.0013413
0.00775899
0.0152961
0.0232292
0.0308183
0.037323
0.0420259
0.0443005
-0.0119959
-0.00908022
-0.0031651
0.00490861
0.0142818
0.0241149
0.0335708
0.0417864
0.0478555
0.0508743
-0.0119651
-0.00907078
-0.00315868
0.0049134
0.0142846
0.0241157
0.0335704
0.0417861
0.0478541
0.050853
-0.011947
-0.00905932
-0.00315092
0.00491816
0.0142866
0.0241155
0.0335682
0.0417822
0.0478481
0.0508417
-0.0119357
-0.0090506
-0.00314479
0.00492184
0.0142881
0.0241149
0.033566
0.0417785
0.047843
0.0508349
-0.0119302
-0.00904608
-0.00314155
0.00492377
0.0142888
0.0241145
0.0335647
0.0417764
0.0478402
0.0508314
-0.0119304
-0.00904623
-0.00314168
0.00492367
0.0142887
0.0241145
0.0335646
0.0417763
0.0478402
0.0508314
-0.0119362
-0.00905104
-0.00314517
0.00492154
0.0142879
0.0241148
0.0335659
0.0417784
0.047843
0.0508348
-0.0119478
-0.00906004
-0.00315154
0.00491766
0.0142863
0.0241152
0.0335681
0.041782
0.047848
0.0508416
-0.0119663
-0.00907184
-0.00315958
0.00491269
0.014284
0.0241154
0.0335702
0.0417859
0.047854
0.0508528
-0.0119973
-0.0090815
-0.00316613
0.00490781
0.0142812
0.0241144
0.0335705
0.0417862
0.0478553
0.0508742
-0.0219692
-0.0178286
-0.00983445
0.000737947
0.0127923
0.0253708
0.037558
0.0483658
0.05663
0.060972
-0.0219258
-0.0178087
-0.00981874
0.000748902
0.0127974
0.0253702
0.037553
0.0483591
0.0566231
0.060946
-0.0218983
-0.0177889
-0.00980467
0.000757324
0.0128004
0.0253683
0.0375471
0.0483501
0.0566116
0.06093
-0.0218808
-0.0177746
-0.00979437
0.000763287
0.0128022
0.0253664
0.037542
0.0483425
0.0566024
0.0609195
-0.0218722
-0.0177673
-0.00978907
0.000766323
0.0128031
0.0253652
0.0375391
0.0483384
0.0565974
0.0609141
-0.0218723
-0.0177674
-0.00978915
0.000766255
0.012803
0.0253652
0.0375391
0.0483384
0.0565973
0.0609141
-0.0218811
-0.0177748
-0.00979461
0.000763084
0.0128021
0.0253663
0.0375419
0.0483425
0.0566023
0.0609194
-0.0218987
-0.0177894
-0.00980506
0.000756982
0.0128001
0.0253681
0.0375469
0.04835
0.0566115
0.0609298
-0.0219264
-0.0178093
-0.00981928
0.000748422
0.012797
0.0253699
0.0375529
0.048359
0.0566229
0.0609458
-0.02197
-0.0178293
-0.00983509
0.000737386
0.0127919
0.0253705
0.0375578
0.0483657
0.0566298
0.0609718
-0.036792
-0.0303918
-0.019144
-0.00497704
0.0107444
0.0270138
0.0429427
0.0574944
0.0692163
0.0760336
-0.0367291
-0.0303493
-0.0191114
-0.00495668
0.010752
0.0270093
0.042928
0.0574733
0.069194
0.0760048
-0.036688
-0.0303158
-0.0190879
-0.00494365
0.0107552
0.0270038
0.0429149
0.0574544
0.069172
0.075983
-0.0366619
-0.0302931
-0.0190718
-0.00493501
0.0107568
0.0269992
0.0429049
0.0574403
0.0691557
0.0759678
-0.0366492
-0.0302818
-0.0190638
-0.00493071
0.0107575
0.0269966
0.0428996
0.0574329
0.0691473
0.0759598
-0.0366493
-0.0302818
-0.0190638
-0.00493075
0.0107575
0.0269966
0.0428996
0.0574329
0.0691473
0.0759598
-0.0366621
-0.0302932
-0.0190719
-0.00493513
0.0107567
0.0269991
0.0429049
0.0574402
0.0691556
0.0759676
-0.0366883
-0.0303161
-0.0190881
-0.00494388
0.010755
0.0270037
0.0429149
0.0574544
0.0691719
0.0759828
-0.0367294
-0.0303497
-0.0191118
-0.00495703
0.0107517
0.0270092
0.0429279
0.0574732
0.0691938
0.0760045
-0.0367924
-0.0303922
-0.0191445
-0.00497746
0.010744
0.0270136
0.0429426
0.0574943
0.0692162
0.0760333
-0.0589396
-0.0479259
-0.0315615
-0.012381
0.00808436
0.0290023
0.0497685
0.0695438
0.0867169
0.0986217
-0.0588528
-0.0478354
-0.0315021
-0.01235
0.00809172
0.0289887
0.0497349
0.0694923
0.0866533
0.0986041
-0.0587943
-0.0477794
-0.031466
-0.0123328
0.00809282
0.0289759
0.0497093
0.0694558
0.0866104
0.098578
-0.0587572
-0.0477442
-0.0314425
-0.0123217
0.00809295
0.0289663
0.0496913
0.0694309
0.0865821
0.0985576
-0.0587394
-0.0477275
-0.0314311
-0.0123162
0.00809292
0.0289615
0.0496822
0.0694186
0.0865684
0.0985468
-0.0587394
-0.0477275
-0.0314311
-0.0123163
0.00809292
0.0289615
0.0496823
0.0694186
0.0865684
0.0985467
-0.0587573
-0.0477443
-0.0314426
-0.0123218
0.00809291
0.0289664
0.0496913
0.0694309
0.086582
0.0985575
-0.0587944
-0.0477796
-0.0314661
-0.012333
0.0080927
0.0289758
0.0497093
0.0694558
0.0866103
0.0985778
-0.058853
-0.0478356
-0.0315024
-0.0123503
0.0080915
0.0289886
0.049735
0.0694922
0.0866531
0.0986038
-0.0589399
-0.0479263
-0.0315618
-0.0123814
0.00808408
0.0290021
0.0497685
0.0695437
0.0867167
0.0986214
-0.0929502
-0.0715366
-0.0472137
-0.02133
0.00486422
0.031168
0.0577365
0.0844251
0.109939
0.13307
-0.0928718
-0.0713478
-0.047125
-0.0212982
0.00486003
0.0311332
0.0576665
0.0843081
0.109743
0.133064
-0.0928015
-0.0712577
-0.0470759
-0.0212808
0.00485386
0.0311071
0.0576204
0.0842417
0.109658
0.133038
-0.0927529
-0.0712042
-0.0470441
-0.0212688
0.0048502
0.03109
0.0575909
0.0842005
0.109608
0.133013
-0.0927296
-0.0711804
-0.0470291
-0.0212627
0.00484859
0.0310819
0.0575769
0.0841816
0.109587
0.133
-0.0927296
-0.0711804
-0.0470291
-0.0212627
0.0048486
0.0310819
0.0575769
0.0841816
0.109587
0.133
-0.0927529
-0.0712043
-0.0470442
-0.0212688
0.00485019
0.0310901
0.0575909
0.0842005
0.109608
0.133013
-0.0928016
-0.0712578
-0.0470761
-0.0212809
0.0048538
0.0311072
0.0576205
0.0842417
0.109657
0.133038
-0.0928719
-0.071348
-0.0471252
-0.0212984
0.00485989
0.0311332
0.0576665
0.0843081
0.109743
0.133064
-0.0929505
-0.0715368
-0.047214
-0.0213302
0.00486406
0.0311679
0.0577365
0.084425
0.109939
0.133069
-0.143534
-0.100963
-0.0651194
-0.0309679
0.00140435
0.0331403
0.0658408
0.100862
0.138225
0.185841
-0.142826
-0.100449
-0.0650127
-0.0309735
0.00135855
0.0330586
0.0656958
0.100581
0.137512
0.185364
-0.142634
-0.100284
-0.0649519
-0.0309648
0.00133756
0.0330127
0.0656209
0.100467
0.137324
0.185265
-0.142547
-0.100199
-0.064912
-0.0309549
0.00132751
0.0329865
0.0655785
0.100407
0.137239
0.185221
-0.142513
-0.100166
-0.0648938
-0.0309493
0.00132357
0.0329748
0.0655597
0.100381
0.137208
0.185205
-0.142513
-0.100166
-0.0648938
-0.0309493
0.00132358
0.0329748
0.0655597
0.100381
0.137208
0.185205
-0.142547
-0.100199
-0.0649121
-0.0309549
0.00132752
0.0329866
0.0655786
0.100407
0.137239
0.185221
-0.142634
-0.100284
-0.0649521
-0.0309649
0.00133754
0.0330128
0.0656209
0.100467
0.137324
0.185265
-0.142826
-0.100449
-0.0650129
-0.0309736
0.0013585
0.0330586
0.0656958
0.100581
0.137512
0.185364
-0.143534
-0.100963
-0.0651196
-0.030968
0.00140429
0.0331403
0.0658408
0.100862
0.138225
0.185841
-0.275906
-0.141559
-0.0828844
-0.0388489
-0.00109628
0.0348045
0.0731147
0.119337
0.181416
0.32156
-0.276735
-0.140912
-0.0828855
-0.0389325
-0.00117569
0.0347121
0.0730046
0.119249
0.18088
0.322945
-0.276814
-0.140736
-0.0828528
-0.0389426
-0.00120836
0.0346604
0.0729371
0.119181
0.180752
0.323214
-0.276829
-0.140659
-0.0828235
-0.0389414
-0.00122401
0.0346313
0.0728973
0.119137
0.180695
0.323304
-0.276821
-0.140629
-0.0828085
-0.0389386
-0.00122996
0.0346184
0.072879
0.119116
0.180673
0.323323
-0.276821
-0.140629
-0.0828085
-0.0389386
-0.00122996
0.0346184
0.072879
0.119116
0.180673
0.323323
-0.276829
-0.140659
-0.0828235
-0.0389415
-0.00122399
0.0346314
0.0728973
0.119137
0.180695
0.323303
-0.276815
-0.140736
-0.0828529
-0.0389427
-0.00120836
0.0346605
0.0729372
0.119181
0.180752
0.323213
-0.276735
-0.140912
-0.0828856
-0.0389326
-0.00117571
0.0347121
0.0730045
0.119249
0.18088
0.322945
-0.275906
-0.141559
-0.0828846
-0.038849
-0.00109631
0.0348045
0.0731147
0.119337
0.181416
0.321559
)
;

boundaryField
{
    top
    {
        type            zeroGradient;
    }
    others
    {
        type            zeroGradient;
    }
}


// ************************************************************************* //
