/*--------------------------------*- C++ -*----------------------------------*\
  =========                 |
  \\      /  F ield         | OpenFOAM: The Open Source CFD Toolbox
   \\    /   O peration     | Website:  https://openfoam.org
    \\  /    A nd           | Version:  9
     \\/     M anipulation  |
\*---------------------------------------------------------------------------*/
FoamFile
{
    format      ascii;
    class       surfaceScalarField;
    location    "0.01";
    object      phi;
}
// * * * * * * * * * * * * * * * * * * * * * * * * * * * * * * * * * * * * * //

dimensions      [0 3 -1 0 0 0 0];

internalField   nonuniform List<scalar> 
22800
(
4.61308e-06
-8.6547e-08
-4.52653e-06
7.82816e-06
-3.69076e-07
-2.846e-06
9.5531e-06
-3.33457e-07
-1.39149e-06
1.04879e-05
-2.3573e-07
-6.99059e-07
1.10046e-05
-1.59079e-07
-3.5764e-07
1.1295e-05
-1.03594e-07
-1.8675e-07
1.14608e-05
-6.4882e-08
-1.00927e-07
1.15549e-05
-3.84653e-08
-5.57138e-08
1.1604e-05
-1.97519e-08
-2.93393e-08
1.16203e-05
-5.07218e-09
-1.11652e-08
1.16071e-05
8.34151e-09
4.79043e-09
1.15612e-05
2.3036e-08
2.28552e-08
1.14707e-05
4.1623e-08
4.89713e-08
1.13097e-05
6.73939e-08
9.35893e-08
1.10268e-05
1.04236e-07
1.78682e-07
1.05208e-05
1.54914e-07
3.51028e-07
9.59706e-06
2.18292e-07
7.05456e-07
7.87118e-06
2.87203e-07
1.43868e-06
4.63318e-06
2.85258e-07
2.95274e-06
-1.00332e-08
4.64321e-06
6.39928e-06
-1.77128e-07
-6.3087e-06
1.11012e-05
-4.19681e-07
-4.65133e-06
1.37918e-05
-4.14312e-07
-2.60973e-06
1.53401e-05
-3.24232e-07
-1.4598e-06
1.62296e-05
-2.32885e-07
-8.15679e-07
1.67443e-05
-1.58253e-07
-4.59998e-07
1.70464e-05
-1.0222e-07
-2.64778e-07
1.72228e-05
-6.15384e-08
-1.53376e-07
1.73184e-05
-3.12763e-08
-8.40501e-08
1.73545e-05
-6.82581e-09
-3.43743e-08
1.73381e-05
1.5694e-08
9.10487e-09
1.72644e-05
3.97716e-08
5.69227e-08
1.71151e-05
6.89036e-08
1.22028e-07
1.68497e-05
1.06814e-07
2.25993e-07
1.63866e-05
1.56924e-07
4.10413e-07
1.55651e-05
2.19874e-07
7.56489e-07
1.40825e-05
2.88946e-07
1.41194e-06
1.13943e-05
3.43652e-07
2.63175e-06
6.56828e-06
3.13234e-07
4.79808e-06
7.20235e-08
6.48623e-06
6.70358e-06
-1.75132e-07
-6.70558e-06
1.18287e-05
-3.4487e-07
-5.19991e-06
1.48322e-05
-3.55698e-07
-3.06212e-06
1.65881e-05
-2.96579e-07
-1.78354e-06
1.7609e-05
-2.23833e-07
-1.02997e-06
1.82056e-05
-1.5808e-07
-5.96802e-07
1.85593e-05
-1.05147e-07
-3.50756e-07
1.87684e-05
-6.44211e-08
-2.06185e-07
1.88839e-05
-3.27038e-08
-1.1411e-07
1.89306e-05
-6.32801e-09
-4.71692e-08
1.89166e-05
1.81131e-08
1.15242e-08
1.88374e-05
4.37322e-08
7.53056e-08
1.86725e-05
7.34877e-08
1.60309e-07
1.83766e-05
1.10086e-07
2.92621e-07
1.78573e-05
1.55251e-07
5.20994e-07
1.69322e-05
2.07604e-07
9.37344e-07
1.5261e-05
2.59044e-07
1.70111e-06
1.22488e-05
2.90182e-07
3.06563e-06
6.9445e-06
2.56163e-07
5.3614e-06
9.82147e-08
6.91831e-06
6.75094e-06
-1.37147e-07
-6.78892e-06
1.20096e-05
-2.51444e-07
-5.35214e-06
1.51257e-05
-2.6574e-07
-3.20599e-06
1.69571e-05
-2.31229e-07
-1.89681e-06
1.80248e-05
-1.81533e-07
-1.10998e-06
1.86495e-05
-1.32621e-07
-6.50122e-07
1.90202e-05
-9.06687e-08
-3.85202e-07
1.92401e-05
-5.66124e-08
-2.27686e-07
1.93627e-05
-2.89173e-08
-1.2642e-07
1.9414e-05
-5.23897e-09
-5.23472e-08
1.94026e-05
1.68437e-08
1.26808e-08
1.93237e-05
3.95944e-08
8.30036e-08
1.91562e-05
6.50642e-08
1.75922e-07
1.88523e-05
9.48556e-08
3.1908e-07
1.83146e-05
1.29483e-07
5.63551e-07
1.7351e-05
1.66939e-07
1.00426e-06
1.56069e-05
2.00524e-07
1.80263e-06
1.24734e-05
2.16541e-07
3.20713e-06
7.01399e-06
1.89619e-07
5.52593e-06
8.85029e-08
7.0237e-06
6.75945e-06
-9.77051e-08
-6.79889e-06
1.20649e-05
-1.7359e-07
-5.38326e-06
1.52252e-05
-1.86466e-07
-3.23962e-06
1.70865e-05
-1.67204e-07
-1.92537e-06
1.81714e-05
-1.35437e-07
-1.1309e-06
1.88048e-05
-1.01863e-07
-6.64218e-07
1.91799e-05
-7.14052e-08
-3.94303e-07
1.9402e-05
-4.545e-08
-2.33357e-07
1.95263e-05
-2.34905e-08
-1.29674e-07
1.9579e-05
-4.22685e-09
-5.3734e-08
1.9569e-05
1.38555e-08
1.29543e-08
1.94915e-05
3.22177e-08
8.49756e-08
1.93244e-05
5.21282e-08
1.79958e-07
1.90189e-05
7.44221e-08
3.25996e-07
1.84744e-05
9.90424e-08
5.74864e-07
1.74948e-05
1.24191e-07
1.02234e-06
1.572e-05
1.45177e-07
1.83022e-06
1.25383e-05
1.53341e-07
3.24486e-06
7.02623e-06
1.34354e-07
5.56734e-06
6.89431e-08
7.04579e-06
6.763e-06
-6.62075e-08
-6.7945e-06
1.20874e-05
-1.163e-07
-5.3817e-06
1.5267e-05
-1.26379e-07
-3.23967e-06
1.71413e-05
-1.15788e-07
-1.92571e-06
1.82328e-05
-9.61034e-08
-1.13082e-06
1.88687e-05
-7.40403e-08
-6.63724e-07
1.9244e-05
-5.30439e-08
-3.9368e-07
1.94658e-05
-3.43818e-08
-2.32839e-07
1.95897e-05
-1.80387e-08
-1.29373e-07
1.96425e-05
-3.3754e-09
-5.36826e-08
1.96331e-05
1.04741e-08
1.27614e-08
1.95564e-05
2.43787e-08
8.45388e-08
1.93902e-05
3.90646e-08
1.79321e-07
1.90844e-05
5.49249e-08
3.253e-07
1.85372e-05
7.17248e-08
5.74466e-07
1.75504e-05
8.81301e-08
1.02292e-06
1.57618e-05
1.01119e-07
1.83266e-06
1.256e-05
1.05436e-07
3.24965e-06
7.02855e-06
9.26688e-08
5.57316e-06
4.98754e-08
7.04761e-06
6.76576e-06
-4.29274e-08
-6.78904e-06
1.20992e-05
-7.52619e-08
-5.37451e-06
1.5288e-05
-8.24899e-08
-3.23269e-06
1.71686e-05
-7.67438e-08
-1.91957e-06
1.8263e-05
-6.48732e-08
-1.12567e-06
1.88995e-05
-5.09294e-08
-6.59611e-07
1.92742e-05
-3.71366e-08
-3.90611e-07
1.9495e-05
-2.44508e-08
-2.30755e-07
1.96182e-05
-1.3026e-08
-1.28178e-07
1.96707e-05
-2.58588e-09
-5.32895e-08
1.96614e-05
7.32856e-09
1.24038e-08
1.95852e-05
1.71996e-08
8.34281e-08
1.94194e-05
2.7418e-08
1.7743e-07
1.91136e-05
3.81505e-08
3.22608e-07
1.85651e-05
4.91629e-08
5.71038e-07
1.75747e-05
5.95671e-08
1.01899e-06
1.57796e-05
6.75159e-08
1.82867e-06
1.2569e-05
6.98803e-08
3.24617e-06
7.02955e-06
6.15933e-08
5.5705e-06
3.39398e-08
7.04549e-06
6.76787e-06
-2.56355e-08
-6.78516e-06
1.21062e-05
-4.50168e-08
-5.36853e-06
1.52998e-05
-4.96478e-08
-3.22644e-06
1.71835e-05
-4.66723e-08
-1.91387e-06
1.82795e-05
-3.9959e-08
-1.12086e-06
1.89162e-05
-3.17942e-08
-6.55807e-07
1.92903e-05
-2.34849e-08
-3.87795e-07
1.95104e-05
-1.56481e-08
-2.28851e-07
1.96329e-05
-8.44416e-09
-1.27092e-07
1.9685e-05
-1.77204e-09
-5.29415e-08
1.96757e-05
4.59088e-09
1.20589e-08
1.95996e-05
1.0891e-08
8.2391e-08
1.9434e-05
1.73231e-08
1.75673e-07
1.91281e-05
2.39487e-08
3.201e-07
1.85789e-05
3.05986e-08
5.67789e-07
1.75866e-05
3.67432e-08
1.01511e-06
1.57883e-05
4.13329e-08
1.82446e-06
1.25735e-05
4.26018e-08
3.24209e-06
7.0304e-06
3.76154e-08
5.5671e-06
2.09582e-08
7.04338e-06
6.76924e-06
-1.19744e-08
-6.7829e-06
1.21101e-05
-2.10767e-08
-5.36481e-06
1.53062e-05
-2.33342e-08
-3.22243e-06
1.71918e-05
-2.20693e-08
-1.91015e-06
1.82886e-05
-1.9037e-08
-1.1177e-06
1.89253e-05
-1.52689e-08
-6.53294e-07
1.92991e-05
-1.1367e-08
-3.85929e-07
1.95187e-05
-7.63025e-09
-2.27588e-07
1.96408e-05
-4.15235e-09
-1.26375e-07
1.96927e-05
-9.04782e-10
-5.27227e-08
1.96832e-05
2.20052e-09
1.18082e-08
1.96072e-05
5.26571e-09
8.16729e-08
1.94417e-05
8.37023e-09
1.74473e-07
1.91357e-05
1.1532e-08
3.184e-07
1.8586e-05
1.46647e-08
5.65594e-07
1.75927e-05
1.75227e-08
1.01249e-06
1.57929e-05
1.96311e-08
1.82159e-06
1.2576e-05
2.01896e-08
3.23927e-06
7.03105e-06
1.78408e-08
5.56473e-06
9.9878e-09
7.04202e-06
6.7699e-06
1.30139e-11
-6.78188e-06
1.21119e-05
2.89747e-13
-5.3631e-06
1.53091e-05
-5.55145e-13
-3.22056e-06
1.71955e-05
2.0175e-14
-1.9084e-06
1.82926e-05
6.05524e-13
-1.1162e-06
1.89295e-05
9.71617e-13
-6.52096e-07
1.93031e-05
1.08145e-12
-3.85037e-07
1.95225e-05
8.1615e-13
-2.26984e-07
1.96444e-05
4.52468e-13
-1.26034e-07
1.96961e-05
2.33747e-13
-5.26229e-08
1.96866e-05
-2.06526e-13
1.16793e-08
1.96106e-05
-6.1248e-13
8.13173e-08
1.94451e-05
-6.95971e-13
1.73886e-07
1.9139e-05
-7.29946e-13
3.17573e-07
1.85891e-05
-9.67665e-13
5.64533e-07
1.75954e-05
-1.118e-12
1.01123e-06
1.57949e-05
-1.26908e-12
1.82021e-06
1.25771e-05
-1.3432e-12
3.23791e-06
7.03139e-06
-1.04332e-12
5.5636e-06
5.7325e-13
7.04138e-06
6.7699e-06
1.20023e-08
-6.78189e-06
1.21119e-05
2.10778e-08
-5.3631e-06
1.53091e-05
2.33336e-08
-3.22056e-06
1.71955e-05
2.20698e-08
-1.9084e-06
1.82926e-05
1.90386e-08
-1.1162e-06
1.89295e-05
1.52712e-08
-6.52097e-07
1.93031e-05
1.13692e-08
-3.85037e-07
1.95225e-05
7.63183e-09
-2.26984e-07
1.96444e-05
4.15318e-09
-1.26034e-07
1.96961e-05
9.0515e-10
-5.2623e-08
1.96866e-05
-2.20101e-09
1.16791e-08
1.96106e-05
-5.26709e-09
8.13173e-08
1.94451e-05
-8.3718e-09
1.73886e-07
1.9139e-05
-1.15336e-08
3.17573e-07
1.85891e-05
-1.46669e-08
5.64533e-07
1.75954e-05
-1.75253e-08
1.01123e-06
1.57949e-05
-1.9634e-08
1.82021e-06
1.25771e-05
-2.01925e-08
3.23791e-06
7.03139e-06
-1.78431e-08
5.5636e-06
-9.98671e-09
7.04138e-06
6.76924e-06
2.56674e-08
-6.7829e-06
1.21101e-05
4.50202e-08
-5.36481e-06
1.53062e-05
4.96493e-08
-3.22244e-06
1.71918e-05
4.66747e-08
-1.91015e-06
1.82886e-05
3.9962e-08
-1.1177e-06
1.89253e-05
3.17973e-08
-6.53295e-07
1.92991e-05
2.34877e-08
-3.8593e-07
1.95187e-05
1.565e-08
-2.27589e-07
1.96408e-05
8.44522e-09
-1.26376e-07
1.96927e-05
1.77262e-09
-5.27233e-08
1.96832e-05
-4.59115e-09
1.18071e-08
1.96072e-05
-1.08922e-08
8.16723e-08
1.94417e-05
-1.73247e-08
1.74473e-07
1.91357e-05
-2.39506e-08
3.184e-07
1.8586e-05
-3.06012e-08
5.65595e-07
1.75927e-05
-3.67462e-08
1.01249e-06
1.57929e-05
-4.13361e-08
1.82159e-06
1.2576e-05
-4.2605e-08
3.23927e-06
7.03105e-06
-3.76179e-08
5.56473e-06
-2.09572e-08
7.04202e-06
6.76787e-06
4.2966e-08
-6.78517e-06
1.21061e-05
7.52683e-08
-5.36853e-06
1.52997e-05
8.24948e-08
-3.22644e-06
1.71835e-05
7.67493e-08
-1.91387e-06
1.82795e-05
6.48788e-08
-1.12087e-06
1.89162e-05
5.0934e-08
-6.5581e-07
1.92903e-05
3.71404e-08
-3.87797e-07
1.95104e-05
2.44534e-08
-2.28852e-07
1.96329e-05
1.30277e-08
-1.27093e-07
1.9685e-05
2.58692e-09
-5.29426e-08
1.96757e-05
-7.32838e-09
1.20573e-08
1.95996e-05
-1.72004e-08
8.239e-08
1.9434e-05
-2.74195e-08
1.75673e-07
1.91281e-05
-3.81525e-08
3.201e-07
1.85789e-05
-4.91655e-08
5.67789e-07
1.75866e-05
-5.95701e-08
1.01511e-06
1.57883e-05
-6.75191e-08
1.82446e-06
1.25735e-05
-6.98835e-08
3.24209e-06
7.0304e-06
-6.15958e-08
5.5671e-06
-3.39389e-08
7.04338e-06
6.76576e-06
6.62563e-08
-6.78905e-06
1.20992e-05
1.16311e-07
-5.37451e-06
1.5288e-05
1.26388e-07
-3.23269e-06
1.71685e-05
1.15798e-07
-1.91957e-06
1.8263e-05
9.61126e-08
-1.12567e-06
1.88995e-05
7.40472e-08
-6.59615e-07
1.92742e-05
5.30492e-08
-3.90614e-07
1.9495e-05
3.43852e-08
-2.30757e-07
1.96182e-05
1.80409e-08
-1.28179e-07
1.96707e-05
3.37678e-09
-5.32906e-08
1.96614e-05
-1.04737e-08
1.24022e-08
1.95852e-05
-2.43793e-08
8.34272e-08
1.94194e-05
-3.9066e-08
1.77429e-07
1.91136e-05
-5.4927e-08
3.22608e-07
1.85651e-05
-7.17275e-08
5.71037e-07
1.75747e-05
-8.81331e-08
1.01899e-06
1.57796e-05
-1.01122e-07
1.82867e-06
1.2569e-05
-1.05439e-07
3.24617e-06
7.02955e-06
-9.26711e-08
5.5705e-06
-4.98748e-08
7.04549e-06
6.76299e-06
9.77679e-08
-6.7945e-06
1.20874e-05
1.73605e-07
-5.3817e-06
1.5267e-05
1.86482e-07
-3.23967e-06
1.71413e-05
1.67219e-07
-1.92572e-06
1.82328e-05
1.3545e-07
-1.13083e-06
1.88687e-05
1.01872e-07
-6.63729e-07
1.9244e-05
7.14122e-08
-3.93683e-07
1.94658e-05
4.54545e-08
-2.32842e-07
1.95897e-05
2.34932e-08
-1.29375e-07
1.96425e-05
4.22855e-09
-5.36839e-08
1.96331e-05
-1.38548e-08
1.27599e-08
1.95564e-05
-3.22181e-08
8.45377e-08
1.93902e-05
-5.21294e-08
1.7932e-07
1.90844e-05
-7.4424e-08
3.25299e-07
1.85372e-05
-9.9045e-08
5.74465e-07
1.75504e-05
-1.24194e-07
1.02292e-06
1.57618e-05
-1.45179e-07
1.83266e-06
1.256e-05
-1.53344e-07
3.24965e-06
7.02855e-06
-1.34356e-07
5.57316e-06
-6.89429e-08
7.04761e-06
6.75944e-06
1.37225e-07
-6.7989e-06
1.20648e-05
2.5146e-07
-5.38325e-06
1.52252e-05
2.6576e-07
-3.23962e-06
1.70865e-05
2.31248e-07
-1.92538e-06
1.81713e-05
1.81548e-07
-1.13091e-06
1.88048e-05
1.32632e-07
-6.64224e-07
1.91798e-05
9.06767e-08
-3.94307e-07
1.9402e-05
5.66177e-08
-2.3336e-07
1.95263e-05
2.89203e-08
-1.29676e-07
1.9579e-05
5.2406e-09
-5.37352e-08
1.9569e-05
-1.68432e-08
1.29532e-08
1.94915e-05
-3.95949e-08
8.4975e-08
1.93244e-05
-6.50654e-08
1.79958e-07
1.90189e-05
-9.48573e-08
3.25995e-07
1.84744e-05
-1.29485e-07
5.74863e-07
1.74948e-05
-1.66941e-07
1.02234e-06
1.572e-05
-2.00526e-07
1.83022e-06
1.25383e-05
-2.16544e-07
3.24486e-06
7.02623e-06
-1.89621e-07
5.56734e-06
-8.85028e-08
7.04579e-06
6.75092e-06
1.7523e-07
-6.78893e-06
1.20096e-05
3.44876e-07
-5.35213e-06
1.51257e-05
3.55718e-07
-3.20598e-06
1.69571e-05
2.96598e-07
-1.89681e-06
1.80248e-05
2.23849e-07
-1.10999e-06
1.86495e-05
1.58091e-07
-6.50127e-07
1.90202e-05
1.05154e-07
-3.85205e-07
1.92401e-05
6.44267e-08
-2.2769e-07
1.93627e-05
3.27073e-08
-1.26423e-07
1.9414e-05
6.3301e-09
-5.2349e-08
1.94026e-05
-1.81122e-08
1.26791e-08
1.93237e-05
-4.37323e-08
8.30026e-08
1.91562e-05
-7.34882e-08
1.75922e-07
1.88524e-05
-1.10086e-07
3.19078e-07
1.83146e-05
-1.55252e-07
5.63549e-07
1.7351e-05
-2.07606e-07
1.00426e-06
1.56069e-05
-2.59046e-07
1.80263e-06
1.24734e-05
-2.90184e-07
3.20713e-06
7.01399e-06
-2.56164e-07
5.52594e-06
-9.82135e-08
7.0237e-06
6.70354e-06
1.77291e-07
-6.70561e-06
1.18287e-05
4.19635e-07
-5.19988e-06
1.48322e-05
4.14321e-07
-3.0621e-06
1.65881e-05
3.24242e-07
-1.78353e-06
1.7609e-05
2.32895e-07
-1.02997e-06
1.82056e-05
1.58262e-07
-5.96806e-07
1.85593e-05
1.02227e-07
-3.50759e-07
1.87684e-05
6.15433e-08
-2.06188e-07
1.88839e-05
3.12796e-08
-1.14111e-07
1.89306e-05
6.82832e-09
-4.71707e-08
1.89166e-05
-1.56923e-08
1.1522e-08
1.88374e-05
-3.97709e-08
7.53043e-08
1.86725e-05
-6.89035e-08
1.60309e-07
1.83766e-05
-1.06814e-07
2.92619e-07
1.78573e-05
-1.56924e-07
5.20993e-07
1.69322e-05
-2.19875e-07
9.37342e-07
1.5261e-05
-2.88946e-07
1.70111e-06
1.22488e-05
-3.43653e-07
3.06563e-06
6.9445e-06
-3.13234e-07
5.3614e-06
-7.20214e-08
6.91831e-06
6.39935e-06
8.65484e-08
-6.30861e-06
1.11013e-05
3.68984e-07
-4.65125e-06
1.37918e-05
3.33478e-07
-2.6097e-06
1.53401e-05
2.35732e-07
-1.45979e-06
1.62296e-05
1.59085e-07
-8.15675e-07
1.67442e-05
1.03601e-07
-4.59999e-07
1.70464e-05
6.48873e-08
-2.64779e-07
1.72228e-05
3.84695e-08
-1.53378e-07
1.73184e-05
1.97548e-08
-8.40509e-08
1.73545e-05
5.07437e-09
-3.43749e-08
1.73381e-05
-8.33947e-09
9.10274e-09
1.72644e-05
-2.30349e-08
5.69213e-08
1.71151e-05
-4.16227e-08
1.22028e-07
1.68497e-05
-6.73935e-08
2.25992e-07
1.63866e-05
-1.04236e-07
4.10412e-07
1.55651e-05
-1.54913e-07
7.56487e-07
1.40825e-05
-2.18291e-07
1.41194e-06
1.13943e-05
-2.87203e-07
2.63175e-06
6.56828e-06
-2.85258e-07
4.79809e-06
1.00322e-08
6.48623e-06
4.61308e-06
-4.52653e-06
7.82801e-06
-2.84594e-06
9.55302e-06
-1.39154e-06
1.04878e-05
-6.99069e-07
1.10046e-05
-3.57647e-07
1.12949e-05
-1.86756e-07
1.14607e-05
-1.00932e-07
1.15549e-05
-5.57169e-08
1.1604e-05
-2.93415e-08
1.16203e-05
-1.11666e-08
1.16071e-05
4.78869e-09
1.15612e-05
2.28543e-08
1.14706e-05
4.89713e-08
1.13097e-05
9.35886e-08
1.10267e-05
1.78681e-07
1.05208e-05
3.51027e-07
9.59706e-06
7.05455e-07
7.87117e-06
1.43868e-06
4.63318e-06
2.95274e-06
4.64321e-06
-7.64447e-07
-1.32137e-07
-3.62995e-06
1.17508e-07
-3.28859e-07
-3.3991e-06
1.26233e-06
-2.78736e-07
-2.25757e-06
2.1541e-06
-1.93223e-07
-1.39761e-06
2.77221e-06
-1.29514e-07
-8.46242e-07
3.18069e-06
-8.36995e-08
-5.11525e-07
3.4423e-06
-5.13844e-08
-3.11153e-07
3.60275e-06
-2.86817e-08
-1.87487e-07
3.69069e-06
-1.17981e-08
-1.05478e-07
3.72118e-06
2.28537e-09
-4.3938e-08
3.69883e-06
1.59634e-08
1.11703e-08
3.61848e-06
3.13597e-08
7.18519e-08
3.46425e-06
5.07171e-08
1.5248e-07
3.20625e-06
7.64917e-08
2.751e-07
2.79661e-06
1.1102e-07
4.77301e-07
2.16988e-06
1.5481e-07
8.22952e-07
1.26293e-06
2.05433e-07
1.40697e-06
1.06459e-07
2.60873e-07
2.33428e-06
-7.76508e-07
2.70805e-07
3.5649e-06
3.50984e-08
3.8316e-06
-5.73516e-07
-2.14722e-07
-5.6526e-06
9.75297e-07
-4.62634e-07
-6.06637e-06
2.96602e-06
-4.43914e-07
-4.43528e-06
4.60231e-06
-3.46911e-07
-2.9424e-06
5.78236e-06
-2.49939e-07
-1.87531e-06
6.58729e-06
-1.69904e-07
-1.17873e-06
7.11719e-06
-1.08682e-07
-7.37382e-07
7.4507e-06
-6.2911e-08
-4.52652e-07
7.63974e-06
-2.74879e-08
-2.574e-07
7.71317e-06
2.44566e-09
-1.07965e-07
7.68076e-06
3.11174e-08
2.6356e-08
7.5346e-06
6.23513e-08
1.72092e-07
7.24728e-06
9.98195e-08
3.60249e-07
6.76667e-06
1.46923e-07
6.36168e-07
6.01e-06
2.05776e-07
1.07233e-06
4.86571e-06
2.7436e-07
1.78123e-06
3.23441e-06
3.42851e-07
2.90582e-06
1.2076e-06
3.90325e-07
4.5291e-06
-4.11158e-07
3.52123e-07
6.33553e-06
1.05783e-07
6.00438e-06
-4.43106e-07
-2.22777e-07
-6.25442e-06
1.38313e-06
-4.47276e-07
-7.04151e-06
3.70153e-06
-4.57796e-07
-5.36664e-06
5.63109e-06
-3.82737e-07
-3.67727e-06
7.04377e-06
-2.90349e-07
-2.40224e-06
8.0212e-06
-2.05711e-07
-1.53842e-06
8.67335e-06
-1.36261e-07
-9.75327e-07
9.08961e-06
-8.14098e-08
-6.03952e-07
9.33039e-06
-3.72947e-08
-3.45085e-07
9.42997e-06
6.51375e-10
-1.44952e-07
9.4006e-06
3.67924e-08
3.52232e-08
9.23378e-06
7.51493e-08
2.29323e-07
8.89807e-06
1.19349e-07
4.76486e-07
8.3328e-06
1.72239e-07
8.32577e-07
7.44098e-06
2.34615e-07
1.38398e-06
6.09176e-06
3.02456e-07
2.25847e-06
4.1688e-06
3.63209e-07
3.60371e-06
1.77229e-06
3.9216e-07
5.4603e-06
-2.17636e-07
3.38098e-07
7.36535e-06
1.33566e-07
6.67289e-06
-3.90987e-07
-1.90222e-07
-6.43049e-06
1.55048e-06
-3.69612e-07
-7.37127e-06
4.00043e-06
-3.93191e-07
-5.72054e-06
6.0448e-06
-3.4384e-07
-3.98008e-06
7.54803e-06
-2.71385e-07
-2.63217e-06
8.59308e-06
-1.99062e-07
-1.70182e-06
9.294e-06
-1.35957e-07
-1.08642e-06
9.74436e-06
-8.35909e-08
-6.7587e-07
1.00078e-05
-3.9906e-08
-3.87229e-07
1.01206e-05
-1.59472e-09
-1.62888e-07
1.00959e-05
3.48428e-08
3.92898e-08
9.92502e-06
7.27163e-08
2.56331e-07
9.57461e-06
1.14867e-07
5.30808e-07
8.97997e-06
1.63174e-07
9.22792e-07
8.0371e-06
2.17416e-07
1.52362e-06
6.60557e-06
2.73163e-07
2.46508e-06
4.56052e-06
3.19076e-07
3.89182e-06
2.00449e-06
3.34525e-07
5.82079e-06
-1.46876e-07
2.84509e-07
7.73089e-06
1.27467e-07
6.88292e-06
-3.687e-07
-1.46263e-07
-6.47415e-06
1.62472e-06
-2.80389e-07
-7.4659e-06
4.1314e-06
-3.06257e-07
-5.83323e-06
6.22211e-06
-2.76524e-07
-4.0834e-06
7.75933e-06
-2.25137e-07
-2.71436e-06
8.82812e-06
-1.6999e-07
-1.76208e-06
9.54538e-06
-1.19223e-07
-1.1283e-06
1.00071e-05
-7.51972e-08
-7.03443e-07
1.02784e-05
-3.72148e-08
-4.03692e-07
1.03965e-05
-3.26074e-09
-1.70213e-07
1.0375e-05
2.90741e-08
4.02903e-08
1.02046e-05
6.21385e-08
2.65961e-07
9.85091e-06
9.78709e-08
5.50615e-07
9.24693e-06
1.37331e-07
9.55823e-07
8.2848e-06
1.79837e-07
1.57457e-06
6.81915e-06
2.21558e-07
2.5396e-06
4.72129e-06
2.53792e-07
3.99337e-06
2.096e-06
2.6153e-07
5.94314e-06
-1.22136e-07
2.21568e-07
7.84842e-06
1.05696e-07
6.94543e-06
-3.57637e-07
-1.04854e-07
-6.47827e-06
1.66322e-06
-2.01229e-07
-7.48171e-06
4.19725e-06
-2.23738e-07
-5.85622e-06
6.30838e-06
-2.06745e-07
-4.10661e-06
7.85856e-06
-1.72437e-07
-2.7337e-06
8.9347e-06
-1.33299e-07
-1.77656e-06
9.65588e-06
-9.55884e-08
-1.13849e-06
1.01198e-05
-6.16174e-08
-7.10326e-07
1.03927e-05
-3.14345e-08
-4.0806e-07
1.05123e-05
-3.97558e-09
-1.72568e-07
1.04921e-05
2.22441e-08
3.97392e-08
1.03228e-05
4.8728e-08
2.67299e-07
9.96903e-06
7.6676e-08
5.54285e-07
9.3623e-06
1.06607e-07
9.62754e-07
8.39258e-06
1.37769e-07
1.58625e-06
6.91194e-06
1.67255e-07
2.55786e-06
4.79012e-06
1.88964e-07
4.01931e-06
2.13382e-06
1.92682e-07
5.97478e-06
-1.12762e-07
1.6309e-07
7.87823e-06
8.02514e-08
6.9603e-06
-3.50084e-07
-7.07375e-08
-6.47308e-06
1.68593e-06
-1.36432e-07
-7.47532e-06
4.23463e-06
-1.53636e-07
-5.85149e-06
6.35599e-06
-1.44351e-07
-4.10333e-06
7.91168e-06
-1.22599e-07
-2.73119e-06
8.98983e-06
-9.65134e-08
-1.77455e-06
9.71106e-06
-7.04319e-08
-1.137e-06
1.01743e-05
-4.61999e-08
-7.09424e-07
1.04466e-05
-2.4145e-08
-4.07806e-07
1.05661e-05
-3.78248e-09
-1.72981e-07
1.05464e-05
1.57216e-08
3.86602e-08
1.03777e-05
3.5251e-08
2.65576e-07
1.00244e-05
5.54903e-08
5.52002e-07
9.41678e-06
7.66542e-08
9.6014e-07
8.4437e-06
9.81115e-08
1.58377e-06
6.95586e-06
1.17857e-07
2.55622e-06
4.82241e-06
1.31884e-07
4.01921e-06
2.15137e-06
1.33578e-07
5.97631e-06
-1.08313e-07
1.13015e-07
7.88026e-06
5.644e-08
6.96099e-06
-3.45085e-07
-4.33397e-08
-6.46748e-06
1.69986e-06
-8.40154e-08
-7.46589e-06
4.25698e-06
-9.54364e-08
-5.84176e-06
6.38408e-06
-9.06898e-08
-4.09463e-06
7.94256e-06
-7.80034e-08
-2.72393e-06
9.02127e-06
-6.22042e-08
-1.76883e-06
9.7418e-06
-4.59696e-08
-1.13279e-06
1.0204e-05
-3.05386e-08
-7.06662e-07
1.04753e-05
-1.62412e-08
-4.06386e-07
1.05943e-05
-2.89397e-09
-1.72815e-07
1.05746e-05
9.92588e-09
3.7619e-08
1.04062e-05
2.26893e-08
2.63336e-07
1.0053e-05
3.57515e-08
5.4856e-07
9.44507e-06
4.91813e-08
9.55534e-07
8.47026e-06
6.25422e-08
1.57817e-06
6.97865e-06
7.45973e-08
2.54998e-06
4.83916e-06
8.29498e-08
4.01289e-06
2.1606e-06
8.36573e-08
5.97057e-06
-1.05729e-07
7.07431e-08
7.87569e-06
3.55654e-08
6.95853e-06
-3.42077e-07
-2.05401e-08
-6.46362e-06
1.70796e-06
-3.99634e-08
-7.4589e-06
4.26985e-06
-4.56273e-08
-5.83413e-06
6.40021e-06
-4.3644e-08
-4.08756e-06
7.96024e-06
-3.78188e-08
-2.71792e-06
9.03919e-06
-3.03915e-08
-1.76405e-06
9.75918e-06
-2.26305e-08
-1.12926e-06
1.02205e-05
-1.51503e-08
-7.04313e-07
1.04912e-05
-8.14353e-09
-4.05134e-07
1.06097e-05
-1.55732e-09
-1.72587e-07
1.05898e-05
4.78019e-09
3.68644e-08
1.04215e-05
1.10696e-08
2.61605e-07
1.00684e-05
1.74592e-08
5.45839e-07
9.4602e-06
2.39629e-08
9.51828e-07
8.48442e-06
3.03606e-08
1.57355e-06
6.99079e-06
3.60656e-08
2.54466e-06
4.84811e-06
3.99596e-08
4.00726e-06
2.16564e-06
4.02028e-08
5.96519e-06
-1.0418e-07
3.3981e-08
7.87131e-06
1.71301e-08
6.95627e-06
-3.40675e-07
6.37896e-13
-6.46175e-06
1.71169e-06
-1.99243e-11
-7.45541e-06
4.27576e-06
-1.96287e-11
-5.83024e-06
6.40763e-06
-1.58019e-11
-4.0839e-06
7.9684e-06
-1.19218e-11
-2.71478e-06
9.04746e-06
-9.23372e-12
-1.76154e-06
9.76719e-06
-7.40865e-12
-1.1274e-06
1.02281e-05
-6.74594e-12
-7.03068e-07
1.04984e-05
-6.09181e-12
-4.04464e-07
1.06167e-05
-5.17335e-12
-1.72456e-07
1.05967e-05
-5.10164e-12
3.64783e-08
1.04284e-05
-5.43194e-12
2.60705e-07
1.00753e-05
-5.21848e-12
5.44419e-07
9.46696e-06
-5.06721e-12
9.49888e-07
8.49074e-06
-5.35242e-12
1.57113e-06
6.9962e-06
-5.50667e-12
2.54184e-06
4.85211e-06
-5.68678e-12
4.00426e-06
2.16793e-06
-5.57618e-12
5.9623e-06
-1.03438e-07
-4.56077e-12
7.86895e-06
-1.29448e-12
6.95507e-06
-3.40676e-07
2.0542e-08
-6.46175e-06
1.71169e-06
3.99238e-08
-7.45541e-06
4.27576e-06
4.55885e-08
-5.83024e-06
6.40763e-06
4.36129e-08
-4.0839e-06
7.9684e-06
3.77955e-08
-2.71479e-06
9.04746e-06
3.03735e-08
-1.76154e-06
9.76719e-06
2.26159e-08
-1.1274e-06
1.02281e-05
1.51371e-08
-7.03068e-07
1.04984e-05
8.13157e-09
-4.04464e-07
1.06167e-05
1.547e-09
-1.72456e-07
1.05967e-05
-4.79044e-09
3.6478e-08
1.04284e-05
-1.10804e-08
2.60705e-07
1.00753e-05
-1.74696e-08
5.44419e-07
9.46697e-06
-2.39731e-08
9.49888e-07
8.49074e-06
-3.03713e-08
1.57113e-06
6.9962e-06
-3.60766e-08
2.54184e-06
4.85211e-06
-3.9971e-08
4.00426e-06
2.16793e-06
-4.02139e-08
5.9623e-06
-1.03438e-07
-3.39902e-08
7.86895e-06
-1.71326e-08
6.95507e-06
-3.42079e-07
4.33439e-08
-6.46362e-06
1.70796e-06
8.39762e-08
-7.45891e-06
4.26985e-06
9.53987e-08
-5.83413e-06
6.40021e-06
9.06599e-08
-4.08756e-06
7.96024e-06
7.79814e-08
-2.71793e-06
9.03918e-06
6.21874e-08
-1.76405e-06
9.75918e-06
4.59559e-08
-1.12926e-06
1.02205e-05
3.05263e-08
-7.04316e-07
1.04912e-05
1.62299e-08
-4.05136e-07
1.06097e-05
2.88385e-09
-1.72588e-07
1.05898e-05
-9.93608e-09
3.6863e-08
1.04215e-05
-2.27001e-08
2.61604e-07
1.00684e-05
-3.57618e-08
5.45839e-07
9.4602e-06
-4.91914e-08
9.51828e-07
8.48442e-06
-6.25529e-08
1.57355e-06
6.99079e-06
-7.46083e-08
2.54466e-06
4.84811e-06
-8.29611e-08
4.00726e-06
2.16564e-06
-8.36683e-08
5.96519e-06
-1.0418e-07
-7.07522e-08
7.87132e-06
-3.55678e-08
6.95627e-06
-3.45087e-07
7.07449e-08
-6.46748e-06
1.69986e-06
1.36393e-07
-7.46589e-06
4.25698e-06
1.53599e-07
-5.84176e-06
6.38408e-06
1.44323e-07
-4.09464e-06
7.94256e-06
1.22579e-07
-2.72394e-06
9.02127e-06
9.64985e-08
-1.76883e-06
9.7418e-06
7.04198e-08
-1.1328e-06
1.0204e-05
4.61891e-08
-7.06666e-07
1.04753e-05
2.41348e-08
-4.06388e-07
1.05943e-05
3.77295e-09
-1.72817e-07
1.05746e-05
-1.57314e-08
3.76167e-08
1.04062e-05
-3.52614e-08
2.63334e-07
1.0053e-05
-5.55003e-08
5.48559e-07
9.44507e-06
-7.66643e-08
9.55534e-07
8.47026e-06
-9.81221e-08
1.57817e-06
6.97866e-06
-1.17867e-07
2.54998e-06
4.83916e-06
-1.31895e-07
4.01289e-06
2.1606e-06
-1.33589e-07
5.97057e-06
-1.05729e-07
-1.13024e-07
7.87569e-06
-5.64426e-08
6.95853e-06
-3.50087e-07
1.04866e-07
-6.47308e-06
1.68593e-06
2.01189e-07
-7.47532e-06
4.23462e-06
2.23702e-07
-5.85149e-06
6.35599e-06
2.0672e-07
-4.10334e-06
7.91168e-06
1.72419e-07
-2.7312e-06
8.98983e-06
1.33287e-07
-1.77456e-06
9.71106e-06
9.55784e-08
-1.137e-06
1.01743e-05
6.16084e-08
-7.09429e-07
1.04467e-05
3.14258e-08
-4.0781e-07
1.05662e-05
3.96692e-09
-1.72984e-07
1.05464e-05
-2.22534e-08
3.86575e-08
1.03777e-05
-4.87379e-08
2.65574e-07
1.00244e-05
-7.66857e-08
5.52002e-07
9.41678e-06
-1.06617e-07
9.60139e-07
8.4437e-06
-1.37779e-07
1.58377e-06
6.95587e-06
-1.67265e-07
2.55622e-06
4.82241e-06
-1.88974e-07
4.01921e-06
2.15137e-06
-1.92692e-07
5.97631e-06
-1.08313e-07
-1.63099e-07
7.88026e-06
-8.0254e-08
6.96099e-06
-3.57639e-07
1.46282e-07
-6.47828e-06
1.66321e-06
2.80345e-07
-7.48171e-06
4.19725e-06
3.0622e-07
-5.85622e-06
6.30837e-06
2.76501e-07
-4.10662e-06
7.85856e-06
2.25122e-07
-2.73371e-06
8.9347e-06
1.6998e-07
-1.77657e-06
9.65588e-06
1.19216e-07
-1.1385e-06
1.01198e-05
7.51899e-08
-7.10333e-07
1.03927e-05
3.72076e-08
-4.08064e-07
1.05123e-05
3.25343e-09
-1.72571e-07
1.04922e-05
-2.90822e-08
3.97358e-08
1.03228e-05
-6.21475e-08
2.67297e-07
9.96903e-06
-9.78798e-08
5.54284e-07
9.3623e-06
-1.3734e-07
9.62752e-07
8.39258e-06
-1.79846e-07
1.58625e-06
6.91194e-06
-2.21567e-07
2.55786e-06
4.79012e-06
-2.53801e-07
4.01931e-06
2.13383e-06
-2.6154e-07
5.97479e-06
-1.12761e-07
-2.21576e-07
7.87823e-06
-1.05699e-07
6.9603e-06
-3.68699e-07
1.90247e-07
-6.47417e-06
1.62473e-06
3.69556e-07
-7.46589e-06
4.1314e-06
3.9315e-07
-5.83323e-06
6.22211e-06
3.43816e-07
-4.0834e-06
7.75933e-06
2.71372e-07
-2.71437e-06
8.82813e-06
1.99055e-07
-1.76209e-06
9.54539e-06
1.35952e-07
-1.1283e-06
1.00071e-05
8.35857e-08
-7.03451e-07
1.02784e-05
3.99004e-08
-4.03697e-07
1.03966e-05
1.58927e-09
-1.70216e-07
1.0375e-05
-3.48489e-08
4.02868e-08
1.02046e-05
-7.27236e-08
2.65959e-07
9.85092e-06
-1.14874e-07
5.50614e-07
9.24694e-06
-1.63181e-07
9.5582e-07
8.28481e-06
-2.17423e-07
1.57457e-06
6.81916e-06
-2.7317e-07
2.53959e-06
4.72129e-06
-3.19083e-07
3.99336e-06
2.09601e-06
-3.34533e-07
5.94314e-06
-1.22134e-07
-2.84515e-07
7.84842e-06
-1.27469e-07
6.94543e-06
-3.9097e-07
2.22801e-07
-6.43051e-06
1.5505e-06
4.47204e-07
-7.37124e-06
4.00044e-06
4.57749e-07
-5.72053e-06
6.04482e-06
3.82711e-07
-3.98008e-06
7.54804e-06
2.90336e-07
-2.63217e-06
8.59309e-06
2.05704e-07
-1.70183e-06
9.29401e-06
1.36257e-07
-1.08643e-06
9.74438e-06
8.14068e-08
-6.75877e-07
1.00078e-05
3.7291e-08
-3.87234e-07
1.01206e-05
-6.54887e-10
-1.62892e-07
1.00959e-05
-3.67963e-08
3.92859e-08
9.92503e-06
-7.51545e-08
2.56328e-07
9.57463e-06
-1.19355e-07
5.30806e-07
8.97998e-06
-1.72244e-07
9.22788e-07
8.03711e-06
-2.3462e-07
1.52361e-06
6.60558e-06
-3.02461e-07
2.46508e-06
4.56052e-06
-3.63214e-07
3.89182e-06
2.0045e-06
-3.92166e-07
5.82079e-06
-1.46873e-07
-3.38102e-07
7.73089e-06
-1.33566e-07
6.88292e-06
-4.43061e-07
2.14709e-07
-6.25445e-06
1.38318e-06
4.62543e-07
-7.04146e-06
3.70157e-06
4.43862e-07
-5.36661e-06
5.63113e-06
3.46884e-07
-3.67726e-06
7.04379e-06
2.49928e-07
-2.40223e-06
8.02122e-06
1.699e-07
-1.53843e-06
8.67336e-06
1.08681e-07
-9.7533e-07
9.08963e-06
6.29098e-08
-6.03956e-07
9.33041e-06
2.74861e-08
-3.45088e-07
9.42999e-06
-2.44682e-09
-1.44954e-07
9.40061e-06
-3.1119e-08
3.52193e-08
9.2338e-06
-6.23542e-08
2.2932e-07
8.89809e-06
-9.98227e-08
4.76484e-07
8.33282e-06
-1.46926e-07
8.32573e-07
7.44099e-06
-2.05778e-07
1.38398e-06
6.09177e-06
-2.74363e-07
2.25847e-06
4.16881e-06
-3.42854e-07
3.60371e-06
1.7723e-06
-3.90328e-07
5.4603e-06
-2.17635e-07
-3.52124e-07
7.36535e-06
-1.05783e-07
6.67289e-06
-5.7339e-07
1.32079e-07
-5.65259e-06
9.75398e-07
3.28776e-07
-6.06628e-06
2.96609e-06
2.78699e-07
-4.43523e-06
4.60235e-06
1.93205e-07
-2.94237e-06
5.78239e-06
1.2951e-07
-1.8753e-06
6.58732e-06
8.37002e-08
-1.17873e-06
7.11722e-06
5.13862e-08
-7.37382e-07
7.45072e-06
2.86831e-08
-4.52654e-07
7.63976e-06
1.17981e-08
-2.574e-07
7.71319e-06
-2.28446e-09
-1.07966e-07
7.68078e-06
-1.59625e-08
2.63529e-08
7.53462e-06
-3.13605e-08
1.7209e-07
7.24729e-06
-5.07183e-08
3.60249e-07
6.76669e-06
-7.64924e-08
6.36166e-07
6.01001e-06
-1.11021e-07
1.07233e-06
4.86572e-06
-1.54809e-07
1.78122e-06
3.23441e-06
-2.05432e-07
2.90582e-06
1.20761e-06
-2.60873e-07
4.5291e-06
-4.11159e-07
-2.70804e-07
6.33553e-06
-3.50986e-08
6.00439e-06
-7.64332e-07
-3.63012e-06
1.17568e-07
-3.39907e-06
1.26232e-06
-2.25759e-06
2.15408e-06
-1.39762e-06
2.7722e-06
-8.46254e-07
3.18067e-06
-5.11534e-07
3.44229e-06
-3.1116e-07
3.60275e-06
-1.87492e-07
3.69069e-06
-1.05481e-07
3.72118e-06
-4.39407e-08
3.69883e-06
1.11673e-08
3.61848e-06
7.18501e-08
3.46425e-06
1.52479e-07
3.20625e-06
2.75098e-07
2.79661e-06
4.77299e-07
2.16988e-06
8.2295e-07
1.26293e-06
1.40697e-06
1.0646e-07
2.33428e-06
-7.76508e-07
3.5649e-06
3.8316e-06
-9.97632e-07
-1.47554e-07
-2.48476e-06
-1.16745e-06
-2.19057e-07
-3.01023e-06
-8.36844e-07
-1.82757e-07
-2.40542e-06
-3.91823e-07
-1.28708e-07
-1.71392e-06
9.10266e-09
-8.45588e-08
-1.16261e-06
3.21678e-07
-5.26789e-08
-7.71422e-07
5.45121e-07
-3.03408e-08
-5.04256e-07
6.9249e-07
-1.46215e-08
-3.20235e-07
7.76604e-07
-2.71414e-09
-1.86877e-07
8.05347e-07
7.80386e-09
-8.04851e-08
7.81036e-07
1.83325e-08
1.71487e-08
6.99672e-07
3.05539e-08
1.22662e-07
5.5107e-07
4.5946e-08
2.55135e-07
3.19742e-07
6.6001e-08
4.40427e-07
-1.02237e-08
9.18442e-08
7.15423e-07
-4.38993e-07
1.22903e-07
1.12882e-06
-9.15391e-07
1.56238e-07
1.72713e-06
-1.2622e-06
1.8639e-07
2.49469e-06
-1.0715e-06
1.93377e-07
3.18082e-06
1.04633e-07
2.65547e-06
-1.45022e-06
-2.15436e-07
-4.1345e-06
-1.69413e-06
-3.62204e-07
-5.67931e-06
-1.08159e-06
-3.40967e-07
-4.88961e-06
-2.25301e-07
-2.66689e-07
-3.66071e-06
5.75333e-07
-1.90565e-07
-2.56993e-06
1.21753e-06
-1.27483e-07
-1.74612e-06
1.68826e-06