/*--------------------------------*- C++ -*----------------------------------*\
  =========                 |
  \\      /  F ield         | OpenFOAM: The Open Source CFD Toolbox
   \\    /   O peration     | Website:  https://openfoam.org
    \\  /    A nd           | Version:  9
     \\/     M anipulation  |
\*---------------------------------------------------------------------------*/
FoamFile
{
    format      ascii;
    class       volVectorField;
    location    "0.01";
    object      U;
}
// * * * * * * * * * * * * * * * * * * * * * * * * * * * * * * * * * * * * * //

dimensions      [0 1 -1 0 0 0 0];

internalField   nonuniform List<vector> 
1000
(
(-0.000779141 1.58289e-06 0.000767199)
(-0.00233948 3.85692e-06 0.000762299)
(-0.003732 2.889e-06 0.000600207)
(-0.00473419 1.84188e-06 0.000381549)
(-0.00525696 5.51797e-07 0.000131998)
(-0.00526068 -8.16805e-07 -0.00012787)
(-0.00474385 -2.13532e-06 -0.000378758)
(-0.00374416 -3.21053e-06 -0.000599647)
(-0.0023494 -3.4948e-06 -0.000763364)
(-0.000784016 -1.23235e-06 -0.000769596)
(-0.000858323 3.79388e-07 0.000844627)
(-0.00257788 4.20654e-06 0.000842535)
(-0.00411425 3.57257e-06 0.000663845)
(-0.00521852 2.34662e-06 0.000421879)
(-0.00579451 6.40959e-07 0.000145812)
(-0.00579853 -1.21727e-06 -0.000141611)
(-0.00522909 -2.99619e-06 -0.000419075)
(-0.00412751 -4.3813e-06 -0.000663355)
(-0.00258919 -4.62892e-06 -0.000844207)
(-0.000863419 -1.69908e-06 -0.000847405)
(-0.000861555 -4.37065e-07 0.000845962)
(-0.00258683 9.25846e-07 0.000844413)
(-0.00412889 1.03492e-06 0.000665512)
(-0.00523741 6.94606e-07 0.000422961)
(-0.00581562 9.39554e-08 0.000146173)
(-0.00581967 -5.88073e-07 -0.000142019)
(-0.00524808 -1.22912e-06 -0.000420246)
(-0.00414223 -1.64527e-06 -0.000665228)
(-0.00259772 -1.56215e-06 -0.000846606)
(-0.000865923 -6.45717e-07 -0.000849551)
(-0.000861626 -6.67148e-07 0.000845417)
(-0.00258694 2.05232e-08 0.000843898)
(-0.00412935 1.49512e-07 0.000665166)
(-0.00523818 9.47772e-08 0.000422753)
(-0.00581656 -7.68333e-08 0.000146099)
(-0.00582063 -2.99508e-07 -0.000141969)
(-0.0052489 -5.09709e-07 -0.000420089)
(-0.00414271 -6.19586e-07 -0.000664994)
(-0.00259774 -5.32735e-07 -0.000846326)
(-0.000865808 -1.96736e-07 -0.000849242)
(-0.000861645 -4.45598e-07 0.000845158)
(-0.0025869 -1.27937e-07 0.000843648)
(-0.00412933 -6.73366e-08 0.000664993)
(-0.00523821 -5.56806e-08 0.000422649)
(-0.00581665 -7.31052e-08 0.000146062)
(-0.00582074 -1.13639e-07 -0.000141938)
(-0.00524898 -1.50112e-07 -0.000420002)
(-0.00414271 -1.61239e-07 -0.000664866)
(-0.00259765 -1.24762e-07 -0.00084617)
(-0.000865744 -2.73922e-08 -0.000849084)
(-0.000861654 -1.81989e-07 0.000845151)
(-0.0025869 -8.11466e-08 0.000843622)
(-0.00412932 -1.03515e-07 0.000664977)
(-0.0052382 -8.63804e-08 0.000422642)
(-0.00581664 -3.22984e-08 0.00014606)
(-0.00582072 3.86068e-08 -0.000141939)
(-0.00524897 1.01501e-07 -0.000420002)
(-0.0041427 1.32274e-07 -0.000664865)
(-0.00259764 1.09578e-07 -0.000846166)
(-0.000865746 5.06563e-08 -0.000849081)
(-0.000861731 -9.58666e-09 0.000845334)
(-0.00258701 -2.12579e-07 0.000843786)
(-0.00412934 -3.19502e-07 0.000665108)
(-0.00523813 -2.37376e-07 0.000422727)
(-0.00581651 -3.12039e-08 0.000146089)
(-0.00582059 2.25824e-07 -0.000141971)
(-0.00524887 4.60065e-07 -0.000420089)
(-0.00414269 5.8725e-07 -0.00066499)
(-0.00259773 5.13304e-07 -0.000846314)
(-0.000865812 2.13451e-07 -0.000849233)
(-0.000861867 -1.67688e-07 0.000845698)
(-0.00258703 -9.8847e-07 0.000844108)
(-0.0041289 -1.13288e-06 0.000665372)
(-0.00523734 -7.85142e-07 0.000422899)
(-0.00581554 -1.74633e-07 0.000146144)
(-0.00581959 5.29769e-07 -0.000142031)
(-0.00524803 1.18508e-06 -0.000420249)
(-0.00414219 1.60862e-06 -0.000665223)
(-0.00259771 1.53345e-06 -0.000846586)
(-0.000865928 6.47594e-07 -0.000849535)
(-0.000859389 -1.07743e-06 0.000843659)
(-0.00257858 -3.94057e-06 0.000841798)
(-0.00411428 -3.76767e-06 0.00066355)
(-0.0052184 -2.46273e-06 0.000421753)
(-0.00579439 -7.19383e-07 0.000145759)
(-0.00579842 1.15846e-06 -0.000141633)
(-0.00522901 2.94668e-06 -0.00041908)
(-0.00412746 4.33046e-06 -0.000663346)
(-0.00258917 4.57943e-06 -0.000844177)
(-0.00086342 1.67168e-06 -0.00084738)
(-0.000780149 -8.87547e-07 0.00076628)
(-0.00233919 -3.12193e-06 0.00076133)
(-0.00373138 -2.87956e-06 0.000600056)
(-0.00473345 -1.85484e-06 0.000381497)
(-0.00525648 -5.6613e-07 0.000131983)
(-0.00526034 8.00194e-07 -0.000127869)
(-0.00474362 2.11227e-06 -0.000378749)
(-0.00374401 3.17711e-06 -0.00059963)
(-0.00234933 3.45766e-06 -0.000763334)
(-0.000784002 1.20691e-06 -0.000769582)
(-0.000945691 -1.16642e-06 0.00247128)
(-0.00282879 1.26151e-06 0.0024469)
(-0.00449462 1.1384e-06 0.00192178)
(-0.00568262 6.67975e-07 0.00121846)
(-0.00629923 1.26431e-07 0.000421069)
(-0.00630455 -4.29623e-07 -0.000407374)
(-0.00569668 -9.90672e-07 -0.00120931)
(-0.00451241 -1.46008e-06 -0.00192047)
(-0.00284398 -1.31296e-06 -0.00245339)
(-0.000952332 1.3859e-06 -0.00248316)
(-0.00104642 -2.42359e-06 0.00272353)
(-0.00313077 1.13101e-06 0.00270708)
(-0.0049751 1.31913e-06 0.0021266)
(-0.00628929 8.16114e-07 0.00134789)
(-0.00697115 1.01389e-07 0.000465317)
(-0.00697681 -6.74885e-07 -0.000451465)
(-0.00630435 -1.44517e-06 -0.00133882)
(-0.00499422 -2.01984e-06 -0.0021257)
(-0.0031469 -1.68411e-06 -0.0027147)
(-0.00105311 1.78677e-06 -0.00273598)
(-0.00105016 -1.34201e-06 0.00273078)
(-0.00314207 5.02507e-08 0.00271519)
(-0.00499373 3.21794e-07 0.00213309)
(-0.00631311 2.20233e-07 0.00135198)
(-0.00699763 -3.61752e-08 0.000466679)
(-0.00700332 -3.40411e-07 -0.000452942)
(-0.00632825 -6.27281e-07 -0.00134309)
(-0.00501288 -7.59834e-07 -0.00213252)
(-0.0031579 -4.67909e-07 -0.00272345)
(-0.00105641 5.89879e-07 -0.00274404)
(-0.0010502 -8.85033e-07 0.0027299)
(-0.00314221 -1.87793e-07 0.0027143)
(-0.00499424 -2.49162e-08 0.00213243)
(-0.0063139 -1.21966e-08 0.00135157)
(-0.00699857 -6.89683e-08 0.00046653)
(-0.00700428 -1.54055e-07 -0.000452835)
(-0.00632907 -2.33615e-07 -0.00134277)
(-0.00501337 -2.3764e-07 -0.00213206)
(-0.0031579 -7.08285e-08 -0.00272294)
(-0.00105627 3.09634e-07 -0.00274348)
(-0.0010502 -3.68639e-07 0.00272937)
(-0.00314215 -2.10527e-08 0.00271376)
(-0.00499421 2.24671e-08 0.00213202)
(-0.00631392 1.96937e-08 0.00135131)
(-0.00699861 1.86284e-09 0.000466437)
(-0.00700433 -2.66804e-08 -0.000452757)
(-0.00632909 -4.92024e-08 -0.00134254)
(-0.00501333 -4.71611e-08 -0.00213174)
(-0.00315777 1.84036e-09 -0.00272256)
(-0.0010562 1.02799e-07 -0.00274311)
(-0.00105022 1.8726e-07 0.00272938)
(-0.00314219 2.92313e-07 0.00271372)
(-0.00499425 1.99605e-07 0.002132)
(-0.00631395 1.30918e-07 0.00135129)
(-0.00699864 9.52336e-08 0.000466431)
(-0.00700435 7.52213e-08 -0.00045276)
(-0.00632911 5.80646e-08 -0.00134254)
(-0.00501334 2.66266e-08 -0.00213174)
(-0.00315778 -3.77357e-08 -0.00272255)
(-0.0010562 -1.1109e-07 -0.0027431)
(-0.00105033 7.45245e-07 0.00272986)
(-0.00314238 5.11659e-07 0.00271415)
(-0.00499438 2.70166e-07 0.00213235)
(-0.006314 1.67606e-07 0.00135152)
(-0.00699865 1.58854e-07 0.000466503)
(-0.00700435 2.01296e-07 -0.000452844)
(-0.00632912 2.40646e-07 -0.00134276)
(-0.00501341 2.14251e-07 -0.00213205)
(-0.00315792 3.29816e-08 -0.00272291)
(-0.00105628 -3.20111e-07 -0.00274348)
(-0.00105051 1.3598e-06 0.00273062)
(-0.00314247 4.07476e-07 0.00271482)
(-0.00499401 -1.68219e-08 0.00213289)
(-0.0063133 -3.94497e-08 0.00135187)
(-0.00699776 1.34816e-07 0.000466623)
(-0.00700343 3.87743e-07 -0.000452968)
(-0.00632833 6.3283e-07 -0.00134309)
(-0.00501294 7.32164e-07 -0.0021325)
(-0.00315793 4.29473e-07 -0.00272341)
(-0.00105642 -6.03527e-07 -0.00274403)
(-0.00104725 2.73138e-06 0.00272289)
(-0.00313161 -6.66669e-07 0.00270631)
(-0.00497553 -1.15054e-06 0.00212624)
(-0.00628954 -7.38447e-07 0.00134771)
(-0.00697132 -7.08002e-08 0.00046522)
(-0.00697694 6.73067e-07 -0.000451509)
(-0.00630445 1.41624e-06 -0.00133883)
(-0.00499429 1.96638e-06 -0.00212567)
(-0.00314692 1.63168e-06 -0.00271464)
(-0.0010531 -1.81444e-06 -0.00273597)
(-0.000946749 1.8922e-06 0.00247165)
(-0.00282937 -7.77444e-07 0.00244641)
(-0.00449447 -1.00022e-06 0.00192185)
(-0.00568237 -6.22602e-07 0.00121851)
(-0.00629905 -1.21151e-07 0.000421115)
(-0.00630443 4.18079e-07 -0.000407334)
(-0.00569661 9.65916e-07 -0.00120927)
(-0.00451237 1.42259e-06 -0.00192043)
(-0.00284396 1.28039e-06 -0.00245336)
(-0.000952313 -1.39845e-06 -0.00248318)
(-0.00114592 -3.19119e-06 0.00454256)
(-0.0034047 -5.38692e-08 0.0044658)
(-0.00536391 1.62477e-07 0.00348218)
(-0.00673355 -2.7309e-08 0.00219475)
(-0.00743574 -1.6693e-07 0.000757108)
(-0.00744421 -2.82952e-07 -0.000728926)
(-0.00675626 -4.81409e-07 -0.00217556)
(-0.00539314 -7.81619e-07 -0.00347885)
(-0.00342938 -6.35212e-07 -0.00448014)
(-0.00115574 2.38733e-06 -0.00456773)
(-0.00126784 -5.17475e-06 0.00500567)
(-0.00376896 -9.83966e-07 0.00494101)
(-0.00593895 -3.7131e-07 0.00385305)
(-0.00745431 -3.70222e-07 0.00242779)
(-0.0082308 -3.7641e-07 0.000836514)
(-0.00823978 -3.91037e-07 -0.00080809)
(-0.00747846 -5.20237e-07 -0.00240891)
(-0.00597014 -7.34894e-07 -0.00385102)
(-0.00379542 -3.06782e-07 -0.00495775)
(-0.00127834 3.53408e-06 -0.00503361)
(-0.00127197 -2.9806e-06 0.00502108)
(-0.00378218 -1.52388e-06 0.00495748)
(-0.00596089 -9.44717e-07 0.00386584)
(-0.0074821 -6.15194e-07 0.00243575)
(-0.00826154 -3.45922e-07 0.000839172)
(-0.00827058 -1.12496e-07 -0.000810892)
(-0.00750642 6.74151e-08 -0.0024171)
(-0.00599228 2.47917e-07 -0.00386422)
(-0.00380874 6.87115e-07 -0.00497488)
(-0.00128243 1.79631e-06 -0.00504977)
(-0.00127186 -1.78126e-06 0.00502018)
(-0.00378212 -1.11964e-06 0.00495656)
(-0.0059612 -7.62639e-07 0.00386508)
(-0.00748266 -4.87943e-07 0.00243525)
(-0.00826222 -2.3566e-07 0.000839002)
(-0.00827131 -7.42335e-09 -0.000810738)
(-0.00750708 1.80069e-07 -0.00241669)
(-0.00599271 3.56759e-07 -0.00386369)
(-0.00380871 6.10951e-07 -0.00497437)
(-0.00128228 9.90871e-07 -0.00504929)
(-0.00127178 -6.46615e-07 0.00501948)
(-0.00378192 -3.40127e-07 0.00495581)
(-0.00596102 -2.26611e-07 0.00386448)
(-0.00748249 -1.38988e-07 0.00243486)
(-0.00826206 -5.47914e-08 0.000838871)
(-0.00827117 2.1261e-08 -0.000810609)
(-0.00750696 8.75536e-08 -0.00241634)
(-0.00599258 1.53075e-07 -0.00386319)
(-0.00380855 2.36309e-07 -0.00497381)
(-0.00128218 3.25317e-07 -0.00504878)
(-0.00127179 4.99256e-07 0.00501948)
(-0.00378195 5.58168e-07 0.00495576)
(-0.00596105 4.17269e-07 0.00386444)
(-0.00748252 2.70915e-07 0.00243484)
(-0.00826208 1.37148e-07 0.00083885)
(-0.00827119 1.85513e-08 -0.000810622)
(-0.00750698 -8.13983e-08 -0.00241635)
(-0.00599258 -1.66395e-07 -0.00386319)
(-0.00380854 -2.52495e-07 -0.0049738)
(-0.00128218 -3.37535e-07 -0.00504878)
(-0.00127193 1.64654e-06 0.00502017)
(-0.00378221 1.35114e-06 0.0049564)
(-0.00596131 9.44302e-07 0.00386496)
(-0.00748274 6.02917e-07 0.00243516)
(-0.00826228 3.02223e-07 0.000838938)
(-0.00827136 4.00386e-08 -0.000810773)
(-0.00750712 -1.7772e-07 -0.0024167)
(-0.00599273 -3.72299e-07 -0.00386367)
(-0.00380871 -6.28625e-07 -0.00497433)
(-0.00128227 -1.0011e-06 -0.00504929)
(-0.00127214 2.9115e-06 0.00502103)
(-0.0037824 1.79779e-06 0.00495716)
(-0.00596108 1.13468e-06 0.0038656)
(-0.00748225 7.20965e-07 0.00243558)
(-0.00826164 3.95386e-07 0.000839058)
(-0.00827067 1.30339e-07 -0.000810958)
(-0.00750648 -7.35167e-08 -0.00241712)
(-0.0059923 -2.7307e-07 -0.0038642)
(-0.00380873 -7.06727e-07 -0.00497482)
(-0.00128241 -1.80338e-06 -0.00504977)
(-0.00126819 4.99145e-06 0.00500555)
(-0.00376935 1.12247e-06 0.00494053)
(-0.00593922 4.22582e-07 0.00385271)
(-0.0074545 3.67223e-07 0.00242755)
(-0.00823092 3.42653e-07 0.000836351)
(-0.00823987 3.45282e-07 -0.000808183)
(-0.00747853 4.72687e-07 -0.00240894)
(-0.00597017 6.8549e-07 -0.00385099)
(-0.00379539 2.81782e-07 -0.00495768)
(-0.0012783 -3.53452e-06 -0.00503361)
(-0.00114613 3.196e-06 0.00454315)
(-0.00340468 1.75032e-07 0.00446594)
(-0.00536377 -1.36502e-07 0.0034823)
(-0.00673338 7.96453e-09 0.00219482)
(-0.00743561 1.24986e-07 0.000757144)
(-0.00744412 2.36042e-07 -0.000728907)
(-0.0067562 4.43338e-07 -0.00217554)
(-0.0053931 7.5001e-07 -0.00347883)
(-0.00342934 6.21332e-07 -0.00448012)
(-0.0011557 -2.37746e-06 -0.00456775)
(-0.00149432 -4.51404e-06 0.00714443)
(-0.00438439 -1.19743e-06 0.00693712)
(-0.00679862 -1.01627e-06 0.00533522)
(-0.0084269 -9.15576e-07 0.00332727)
(-0.00924359 -5.41638e-07 0.00114412)
(-0.00925786 -9.45215e-08 -0.00109234)
(-0.00846575 1.80147e-07 -0.00329094)
(-0.0068502 2.82838e-08 -0.00532724)
(-0.00442996 -7.05407e-08 -0.00696298)
(-0.00151282 3.07791e-06 -0.00719354)
(-0.00165355 -7.56323e-06 0.00787012)
(-0.00485377 -3.21032e-06 0.00767229)
(-0.00752737 -2.49726e-06 0.00590112)
(-0.00932863 -1.90714e-06 0.00367905)
(-0.0102315 -9.84707e-07 0.00126334)
(-0.0102467 7.09437e-09 -0.00121108)
(-0.00936998 7.09877e-07 -0.00364334)
(-0.00758243 8.48064e-07 -0.00589579)
(-0.00490256 1.04676e-06 -0.00770321)
(-0.00167335 4.9808e-06 -0.00792563)
(-0.0016589 -4.94627e-06 0.00789484)
(-0.00487071 -3.52008e-06 0.00769801)
(-0.00755483 -2.62442e-06 0.00592074)
(-0.00936279 -1.73199e-06 0.00369117)
(-0.010269 -7.40679e-07 0.00126745)
(-0.0102843 2.4348e-07 -0.00121518)
(-0.00940447 1.05845e-06 -0.0036556)
(-0.00761036 1.62095e-06 -0.0059159)
(-0.00491998 2.12198e-06 -0.00772991)
(-0.00167891 3.12488e-06 -0.0079516)
(-0.00165873 -2.98726e-06 0.00789376)
(-0.00487053 -2.40711e-06 0.00769682)
(-0.00755493 -1.82124e-06 0.00591972)
(-0.00936302 -1.166e-06 0.00369053)
(-0.0102693 -4.56379e-07 0.00126729)
(-0.0102847 2.37105e-07 -0.00121485)
(-0.00940493 8.2543e-07 -0.0036549)
(-0.00761077 1.26217e-06 -0.00591503)
(-0.00492007 1.59244e-06 -0.00772916)
(-0.00167883 1.86307e-06 -0.00795112)
(-0.0016586 -1.04852e-06 0.0078928)
(-0.00487021 -8.04694e-07 0.00769577)
(-0.00755453 -6.07221e-07 0.00591887)
(-0.00936256 -3.83919e-07 0.00369001)
(-0.0102688 -1.40313e-07 0.00126716)
(-0.0102842 9.86997e-08 -0.0012146)
(-0.00940459 3.06557e-07 -0.00365432)
(-0.00761052 4.67406e-07 -0.00591424)
(-0.00491988 5.83937e-07 -0.00772832)
(-0.00167875 6.2749e-07 -0.00795042)
(-0.00165861 9.17192e-07 0.00789281)
(-0.00487022 9.28439e-07 0.00769574)
(-0.00755455 7.16272e-07 0.00591883)
(-0.00936258 4.52558e-07 0.00368998)
(-0.0102689 1.75607e-07 0.00126714)
(-0.0102842 -8.47414e-08 -0.00121461)
(-0.00940459 -3.04578e-07 -0.00365432)
(-0.00761052 -4.66499e-07 -0.00591424)
(-0.00491988 -5.74153e-07 -0.00772832)
(-0.00167874 -6.43624e-07 -0.00795042)
(-0.00165877 2.86499e-06 0.00789379)
(-0.00487058 2.53301e-06 0.0076967)
(-0.007555 1.91637e-06 0.00591962)
(-0.00936307 1.21635e-06 0.00369046)
(-0.0102693 4.75354e-07 0.00126724)
(-0.0102847 -2.30745e-07 -0.00121487)
(-0.00940494 -8.26686e-07 -0.00365489)
(-0.00761076 -1.26513e-06 -0.00591501)
(-0.00492005 -1.58505e-06 -0.00772914)
(-0.00167881 -1.8742e-06 -0.00795113)
(-0.00165899 4.86026e-06 0.0078949)
(-0.00487082 3.65554e-06 0.00769782)
(-0.00755495 2.712e-06 0.00592058)
(-0.00936288 1.76424e-06 0.00369105)
(-0.0102691 7.36908e-07 0.00126737)
(-0.0102843 -2.55811e-07 -0.0012152)
(-0.00940448 -1.06654e-06 -0.00365559)
(-0.00761035 -1.63295e-06 -0.00591587)
(-0.00491994 -2.12581e-06 -0.00772987)
(-0.00167887 -3.13087e-06 -0.00795162)
(-0.00165369 7.43116e-06 0.00787021)
(-0.00485394 3.24513e-06 0.00767203)
(-0.00752754 2.48503e-06 0.00590093)
(-0.00932875 1.85592e-06 0.00367892)
(-0.0102316 9.11417e-07 0.00126326)
(-0.0102467 -7.44851e-08 -0.00121111)
(-0.00936998 -7.47099e-07 -0.0036433)
(-0.00758241 -8.7182e-07 -0.00589575)
(-0.00490251 -1.053e-06 -0.00770318)
(-0.00167331 -4.97086e-06 -0.00792565)
(-0.00149439 4.48708e-06 0.00714514)
(-0.00438435 1.22529e-06 0.00693739)
(-0.00679854 1.00299e-06 0.0053354)
(-0.0084268 8.76105e-07 0.00332739)
(-0.00924349 4.8642e-07 0.00114419)
(-0.00925778 4.06742e-08 -0.00109229)
(-0.00846569 -2.03411e-07 -0.0032909)
(-0.00685016 -3.86802e-08 -0.00532722)
(-0.00442992 6.72544e-08 -0.00696298)
(-0.00151278 -3.0698e-06 -0.00719356)
(-0.00208578 -6.21892e-06 0.0106485)
(-0.00597384 -3.29898e-06 0.0100979)
(-0.00900254 -3.18163e-06 0.00758474)
(-0.0109261 -2.4274e-06 0.00464796)
(-0.011856 -1.08899e-06 0.00158934)
(-0.0118799 3.59917e-07 -0.00149832)
(-0.0109926 1.50117e-06 -0.00458131)
(-0.00909467 1.79746e-06 -0.00756554)
(-0.00606132 1.29614e-06 -0.0101409)
(-0.00212341 3.61483e-06 -0.0107441)
(-0.00230827 -1.08474e-05 0.0117255)
(-0.00661301 -7.09851e-06 0.0111628)
(-0.00996626 -6.21138e-06 0.00838562)
(-0.0120939 -4.40538e-06 0.00513714)
(-0.0131217 -1.82004e-06 0.00175378)
(-0.0131472 8.78624e-07 -0.00166148)
(-0.0121649 3.06251e-06 -0.00507112)
(-0.010065 4.00835e-06 -0.00837089)
(-0.00670736 3.75316e-06 -0.0112155)
(-0.00234902 6.44723e-06 -0.011835)
(-0.0023161 -7.69312e-06 0.0117622)
(-0.00663633 -6.58777e-06 0.0111994)
(-0.0100021 -5.21593e-06 0.00841284)
(-0.0121372 -3.34657e-06 0.00515385)
(-0.0131687 -1.18104e-06 0.00175961)
(-0.0131944 9.65843e-07 -0.00166674)
(-0.0122089 2.80691e-06 -0.00508755)
(-0.0101019 4.00113e-06 -0.00839847)
(-0.00673185 4.48064e-06 -0.0112533)
(-0.00235742 4.82594e-06 -0.011874)
(-0.002316 -4.6916e-06 0.0117607)
(-0.00663613 -4.28434e-06 0.0111974)
(-0.0100018 -3.35472e-06 0.00841127)
(-0.0121369 -2.08899e-06 0.00515299)
(-0.0131684 -6.74599e-07 0.00175955)
(-0.0131943 7.17712e-07 -0.00166605)
(-0.012209 1.91342e-06 -0.00508623)
(-0.0101023 2.74696e-06 -0.00839681)
(-0.00673231 3.13161e-06 -0.0112519)
(-0.00235761 3.05279e-06 -0.0118734)
(-0.00231586 -1.61171e-06 0.0117594)
(-0.00663568 -1.44395e-06 0.0111959)
(-0.0100011 -1.1279e-06 0.00841008)
(-0.012136 -6.95012e-07 0.00515232)
(-0.0131675 -2.12731e-07 0.00175946)
(-0.0131934 2.62539e-07 -0.0016656)
(-0.0122084 6.74243e-07 -0.0050853)
(-0.0101019 9.66522e-07 -0.00839556)
(-0.00673217 1.10677e-06 -0.0112505)
(-0.00235759 1.04346e-06 -0.0118725)
(-0.00231587 1.51169e-06 0.0117594)
(-0.00663568 1.51121e-06 0.0111959)
(-0.0100011 1.18592e-06 0.00841005)
(-0.012136 7.30148e-07 0.00515231)
(-0.0131675 2.28684e-07 0.00175945)
(-0.0131934 -2.50156e-07 -0.0016656)
(-0.0122084 -6.59617e-07 -0.0050853)
(-0.0101019 -9.54441e-07 -0.00839556)
(-0.00673216 -1.0931e-06 -0.0112505)
(-0.00235758 -1.07107e-06 -0.0118725)
(-0.00231602 4.60065e-06 0.0117607)
(-0.00663615 4.35815e-06 0.0111974)
(-0.0100019 3.40978e-06 0.0084112)
(-0.0121369 2.11538e-06 0.00515295)
(-0.0131684 6.82416e-07 0.00175954)
(-0.0131943 -7.0398e-07 -0.00166604)
(-0.012209 -1.89262e-06 -0.00508621)
(-0.0101023 -2.73399e-06 -0.00839681)
(-0.00673229 -3.1206e-06 -0.0112519)
(-0.00235759 -3.07222e-06 -0.0118735)
(-0.00231614 7.62569e-06 0.0117622)
(-0.00663638 6.66412e-06 0.0111992)
(-0.0100021 5.27256e-06 0.00841275)
(-0.0121373 3.36834e-06 0.00515379)
(-0.0131687 1.18346e-06 0.0017596)
(-0.0131944 -9.61651e-07 -0.00166671)
(-0.0122089 -2.78263e-06 -0.0050875)
(-0.0101019 -3.99554e-06 -0.00839846)
(-0.00673183 -4.49182e-06 -0.0112533)
(-0.00235738 -4.84305e-06 -0.011874)
(-0.00230832 1.07624e-05 0.0117256)
(-0.00661307 7.10915e-06 0.0111627)
(-0.00996636 6.19764e-06 0.00838552)
(-0.012094 4.36711e-06 0.00513708)
(-0.0131218 1.77354e-06 0.00175378)
(-0.0131472 -9.06287e-07 -0.00166145)
(-0.0121649 -3.04461e-06 -0.00507106)
(-0.010065 -3.99975e-06 -0.00837087)
(-0.00670736 -3.77299e-06 -0.0112155)
(-0.002349 -6.45242e-06 -0.0118351)
(-0.0020858 6.20023e-06 0.010649)
(-0.00597379 3.30705e-06 0.0100981)
(-0.00900249 3.16666e-06 0.0075849)
(-0.0109261 2.40095e-06 0.00464808)
(-0.011856 1.06231e-06 0.00158942)
(-0.0118798 -3.76681e-07 -0.00149826)
(-0.0109926 -1.47936e-06 -0.00458127)
(-0.00909467 -1.78202e-06 -0.00756554)
(-0.00606131 -1.31523e-06 -0.010141)
(-0.0021234 -3.62948e-06 -0.0107441)
(-0.00313208 -8.64085e-06 0.0156894)
(-0.00857577 -8.24033e-06 0.0142103)
(-0.0122903 -7.48967e-06 0.0102631)
(-0.0144235 -4.97537e-06 0.00611659)
(-0.0153897 -1.80027e-06 0.00207229)
(-0.0154283 1.35284e-06 -0.00191851)
(-0.014534 4.15595e-06 -0.00599703)
(-0.0124528 5.79326e-06 -0.0102165)
(-0.00874833 5.18639e-06 -0.0142732)
(-0.00321371 3.63124e-06 -0.0158772)
(-0.00346638 -1.56192e-05 0.0172683)
(-0.00949165 -1.52763e-05 0.0156996)
(-0.0136024 -1.31123e-05 0.0113415)
(-0.0159619 -8.39948e-06 0.00675755)
(-0.01703 -2.80444e-06 0.0022853)
(-0.0170713 2.70469e-06 -0.00212796)
(-0.0160806 7.59255e-06 -0.00663737)
(-0.0137778 1.06844e-05 -0.0113009)
(-0.00967976 1.04097e-05 -0.0157788)
(-0.00355604 7.67876e-06 -0.017486)
(-0.00347915 -1.16631e-05 0.0173222)
(-0.00952569 -1.18118e-05 0.0157488)
(-0.0136501 -9.35952e-06 0.0113772)
(-0.0160174 -5.63559e-06 0.00677942)
(-0.0170894 -1.55156e-06 0.00229325)
(-0.0171311 2.37903e-06 -0.00213403)
(-0.0161374 5.88037e-06 -0.00665778)
(-0.0138276 8.34976e-06 -0.0113362)
(-0.00971645 8.99945e-06 -0.0158294)
(-0.0035702 7.09006e-06 -0.0175439)
(-0.0034794 -7.08472e-06 0.0173204)
(-0.00952561 -7.16591e-06 0.0157456)
(-0.0136491 -5.60365e-06 0.0113749)
(-0.0160162 -3.30965e-06 0.00677842)
(-0.0170882 -8.15738e-07 0.00229347)
(-0.0171302 1.59082e-06 -0.00213276)
(-0.0161369 3.69803e-06 -0.00665553)
(-0.0138278 5.2082e-06 -0.0113332)
(-0.0097178 5.71462e-06 -0.0158265)
(-0.00357115 4.66211e-06 -0.0175435)
(-0.00347932 -2.3909e-06 0.0173187)
(-0.00952503 -2.36442e-06 0.0157434)
(-0.0136479 -1.854e-06 0.0113733)
(-0.0160146 -1.08708e-06 0.00677764)
(-0.0170866 -2.50171e-07 0.00229349)
(-0.0171287 5.55444e-07 -0.00213202)
(-0.0161358 1.25551e-06 -0.00665414)
(-0.0138272 1.75115e-06 -0.0113313)
(-0.00971784 1.93126e-06 -0.0158244)
(-0.00357135 1.60283e-06 -0.0175423)
(-0.00347933 2.31958e-06 0.0173187)
(-0.00952503 2.39496e-06 0.0157434)
(-0.0136479 1.86957e-06 0.0113733)
(-0.0160146 1.09992e-06 0.00677763)
(-0.0170866 2.64298e-07 0.00229349)
(-0.0171287 -5.33197e-07 -0.00213202)
(-0.0161358 -1.23102e-06 -0.00665414)
(-0.0138272 -1.74685e-06 -0.0113313)
(-0.00971783 -1.92494e-06 -0.0158244)
(-0.00357134 -1.64212e-06 -0.0175423)
(-0.00347942 7.02375e-06 0.0173204)
(-0.00952563 7.20714e-06 0.0157455)
(-0.0136491 5.63258e-06 0.0113749)
(-0.0160162 3.32314e-06 0.00677841)
(-0.0170882 8.28209e-07 0.00229348)
(-0.0171302 -1.55977e-06 -0.00213275)
(-0.0161369 -3.65659e-06 -0.00665553)
(-0.0138279 -5.19338e-06 -0.0113332)
(-0.00971777 -5.70914e-06 -0.0158264)
(-0.00357112 -4.6877e-06 -0.0175435)
(-0.00347916 1.16159e-05 0.0173223)
(-0.00952571 1.1841e-05 0.0157487)
(-0.0136501 9.38216e-06 0.0113772)
(-0.0160175 5.63638e-06 0.0067794)
(-0.0170894 1.55195e-06 0.00229326)
(-0.0171311 -2.37021e-06 -0.00213402)
(-0.0161375 -5.84257e-06 -0.00665776)
(-0.0138276 -8.34789e-06 -0.0113362)
(-0.00971643 -9.02583e-06 -0.0158293)
(-0.00357016 -7.10851e-06 -0.0175439)
(-0.00346641 1.55581e-05 0.0172684)
(-0.00949169 1.52442e-05 0.0156995)
(-0.0136025 1.30591e-05 0.0113414)
(-0.0159619 8.34728e-06 0.00675752)
(-0.01703 2.7697e-06 0.00228531)
(-0.0170713 -2.71605e-06 -0.00212795)
(-0.0160806 -7.56092e-06 -0.00663737)
(-0.0137779 -1.06884e-05 -0.0113009)
(-0.00967975 -1.04495e-05 -0.0157787)
(-0.003556 -7.68004e-06 -0.017486)
(-0.00313209 8.62466e-06 0.0156897)
(-0.00857574 8.20789e-06 0.0142105)
(-0.0122903 7.42967e-06 0.0102632)
(-0.0144234 4.92518e-06 0.00611666)
(-0.0153897 1.77751e-06 0.00207234)
(-0.0154282 -1.36578e-06 -0.00191848)
(-0.014534 -4.13687e-06 -0.00599703)
(-0.0124529 -5.79608e-06 -0.0102165)
(-0.00874832 -5.22108e-06 -0.0142731)
(-0.00321368 -3.63563e-06 -0.0158773)
(-0.00515409 -1.13739e-05 0.0234336)
(-0.0130486 -2.00264e-05 0.0194302)
(-0.0171494 -1.52148e-05 0.0131839)
(-0.0191103 -8.45839e-06 0.00753325)
(-0.0198822 -2.27384e-06 0.0025165)
(-0.0199399 3.32352e-06 -0.00226801)
(-0.0192826 8.96851e-06 -0.00732344)
(-0.0174241 1.42174e-05 -0.0130692)
(-0.01339 1.6227e-05 -0.0194816)
(-0.00533651 1.53159e-06 -0.0237771)
(-0.0057036 -2.14406e-05 0.0257762)
(-0.0144365 -3.29399e-05 0.0214489)
(-0.018971 -2.47984e-05 0.0145629)
(-0.0211421 -1.36287e-05 0.00832046)
(-0.0219965 -3.2713e-06 0.00277431)
(-0.0220585 6.18566e-06 -0.00251605)
(-0.0213281 1.55158e-05 -0.00810424)
(-0.0192693 2.39283e-05 -0.0144509)
(-0.0148129 2.71699e-05 -0.0215197)
(-0.00590681 6.79158e-06 -0.0261757)
(-0.00572679 -1.68376e-05 0.0258577)
(-0.0144891 -2.07775e-05 0.0215126)
(-0.0190346 -1.54761e-05 0.0146083)
(-0.0212132 -8.35419e-06 0.00834816)
(-0.0220713 -1.47804e-06 0.00278496)
(-0.022134 4.85203e-06 -0.00252221)
(-0.0214013 1.08289e-05 -0.00812777)
(-0.0193369 1.58456e-05 -0.0144934)
(-0.0148715 1.77255e-05 -0.0215833)
(-0.00593347 9.53275e-06 -0.0262631)
(-0.00572811 -1.01252e-05 0.025856)
(-0.0144895 -1.15111e-05 0.0215075)
(-0.0190322 -8.64975e-06 0.0146054)
(-0.0212103 -4.67944e-06 0.00834746)
(-0.0220687 -6.99571e-07 0.00278579)
(-0.0221318 3.01086e-06 -0.0025202)
(-0.0213997 6.38224e-06 -0.0081245)
(-0.0193366 9.05945e-06 -0.0144886)
(-0.0148748 9.98054e-06 -0.0215779)
(-0.00593637 6.52942e-06 -0.0262634)
(-0.00572826 -3.35144e-06 0.0258542)
(-0.0144888 -3.63985e-06 0.0215047)
(-0.0190301 -2.77136e-06 0.0146035)
(-0.0212078 -1.50233e-06 0.00834676)
(-0.0220662 -2.00301e-07 0.00278603)
(-0.0221296 1.01091e-06 -0.00251916)
(-0.0213978 2.09167e-06 -0.00812267)
(-0.0193356 2.91622e-06 -0.014486)
(-0.0148753 3.18801e-06 -0.0215751)
(-0.00593713 2.24794e-06 -0.0262624)
(-0.00572826 3.30766e-06 0.0258542)
(-0.0144888 3.65927e-06 0.0215046)
(-0.0190301 2.77457e-06 0.0146035)
(-0.0212078 1.51738e-06 0.00834676)
(-0.0220663 2.28443e-07 0.00278604)
(-0.0221296 -9.85474e-07 -0.00251916)
(-0.0213978 -2.07157e-06 -0.00812267)
(-0.0193356 -2.91104e-06 -0.014486)
(-0.0148753 -3.16887e-06 -0.021575)
(-0.00593712 -2.28211e-06 -0.0262623)
(-0.00572811 1.00842e-05 0.0258561)
(-0.0144895 1.15111e-05 0.0215075)
(-0.0190322 8.6592e-06 0.0146053)
(-0.0212103 4.68925e-06 0.00834746)
(-0.0220687 7.22297e-07 0.0027858)
(-0.0221318 -2.97874e-06 -0.00252021)
(-0.0213997 -6.34465e-06 -0.0081245)
(-0.0193366 -9.04091e-06 -0.0144886)
(-0.0148747 -9.95634e-06 -0.0215779)
(-0.00593633 -6.54632e-06 -0.0262634)
(-0.00572677 1.6791e-05 0.0258578)
(-0.0144891 2.07392e-05 0.0215125)
(-0.0190346 1.54492e-05 0.0146082)
(-0.0212131 8.34273e-06 0.00834815)
(-0.0220712 1.48291e-06 0.00278497)
(-0.022134 -4.8541e-06 -0.00252223)
(-0.0214013 -1.08112e-05 -0.00812778)
(-0.0193369 -1.5849e-05 -0.0144933)
(-0.0148715 -1.77269e-05 -0.0215833)
(-0.00593343 -9.53961e-06 -0.0262631)
(-0.00570362 2.13685e-05 0.0257763)
(-0.0144365 3.28662e-05 0.0214489)
(-0.018971 2.47148e-05 0.0145629)
(-0.0211421 1.35869e-05 0.00832048)
(-0.0219964 3.26049e-06 0.00277433)
(-0.0220585 -6.20458e-06 -0.00251608)
(-0.0213281 -1.5518e-05 -0.00810426)
(-0.0192693 -2.39418e-05 -0.0144508)
(-0.0148129 -2.7161e-05 -0.0215197)
(-0.00590677 -6.77751e-06 -0.0261757)
(-0.00515408 1.13319e-05 0.0234338)
(-0.0130486 1.99642e-05 0.0194302)
(-0.0171494 1.5146e-05 0.013184)
(-0.0191103 8.42657e-06 0.0075333)
(-0.0198822 2.27929e-06 0.00251653)
(-0.0199398 -3.34367e-06 -0.00226802)
(-0.0192826 -8.9844e-06 -0.00732345)
(-0.0174241 -1.42298e-05 -0.0130692)
(-0.01339 -1.62085e-05 -0.0194816)
(-0.00533647 -1.4977e-06 -0.0237771)
(-0.00932235 -1.50106e-05 0.0359789)
(-0.0210484 -4.8523e-05 0.0254148)
(-0.0240043 -2.63198e-05 0.0156376)
(-0.0248074 -1.08154e-05 0.00839025)
(-0.0248959 -9.85421e-07 0.00274405)
(-0.0249651 7.06526e-06 -0.00237397)
(-0.0250247 1.68858e-05 -0.00804654)
(-0.0243771 3.12202e-05 -0.0153965)
(-0.0216019 5.063e-05 -0.0254348)
(-0.00959725 5.09307e-06 -0.0370418)
(-0.0103043 -2.82075e-05 0.0394612)
(-0.0232572 -7.16572e-05 0.0280066)
(-0.0265162 -4.08316e-05 0.0172673)
(-0.0274162 -1.71996e-05 0.00926861)
(-0.0275176 -1.12385e-06 0.003027)
(-0.0275909 1.23541e-05 -0.00263255)
(-0.0276471 2.79319e-05 -0.00890139)
(-0.0269148 4.87042e-05 -0.0170115)
(-0.0238596 7.33533e-05 -0.0280404)
(-0.0105985 1.1879e-05 -0.0407062)
(-0.0103494 -2.22951e-05 0.0395701)
(-0.023342 -3.55407e-05 0.0280817)
(-0.0265981 -2.28913e-05 0.0173222)
(-0.0275038 -1.0274e-05 0.00930224)
(-0.0276081 -1.69833e-07 0.00304064)
(-0.027682 8.64478e-06 -0.00263778)
(-0.0277372 1.77371e-05 -0.00892636)
(-0.0270024 2.74027e-05 -0.0170591)
(-0.0239548 3.44486e-05 -0.0281128)
(-0.0106495 1.22573e-05 -0.0408326)
(-0.0103533 -1.33475e-05 0.0395666)
(-0.0233434 -1.76917e-05 0.0280742)
(-0.0265926 -1.21289e-05 0.0173199)
(-0.0274986 -5.69536e-06 0.00930285)
(-0.027604 -5.06124e-08 0.00304245)
(-0.0276784 4.97844e-06 -0.00263531)
(-0.0277338 9.81712e-06 -0.00892289)
(-0.0270004 1.43218e-05 -0.0170537)
(-0.0239615 1.66323e-05 -0.0281044)
(-0.0106565 8.24376e-06 -0.0408338)
(-0.010354 -4.29135e-06 0.0395648)
(-0.0233427 -5.27057e-06 0.028071)
(-0.0265892 -3.75735e-06 0.0173183)
(-0.027495 -1.80935e-06 0.00930262)
(-0.0276007 -5.91434e-09 0.00304302)
(-0.0276754 1.60508e-06 -0.00263415)
(-0.0277312 3.10913e-06 -0.0089211)
(-0.0269988 4.38894e-06 -0.0170511)
(-0.0239631 4.87586e-06 -0.0281013)
(-0.0106585 2.72668e-06 -0.0408337)
(-0.010354 4.26339e-06 0.0395648)
(-0.0233427 5.27072e-06 0.028071)
(-0.0265892 3.75266e-06 0.0173183)
(-0.027495 1.82808e-06 0.00930262)
(-0.0276007 4.00089e-08 0.00304302)
(-0.0276754 -1.59141e-06 -0.00263415)
(-0.0277311 -3.08762e-06 -0.00892109)
(-0.0269988 -4.36042e-06 -0.0170511)
(-0.023963 -4.84921e-06 -0.0281013)
(-0.0106585 -2.75079e-06 -0.0408337)
(-0.0103533 1.33248e-05 0.0395666)
(-0.0233434 1.76578e-05 0.0280741)
(-0.0265926 1.21178e-05 0.0173198)
(-0.0274986 5.70047e-06 0.00930285)
(-0.027604 7.45902e-08 0.00304245)
(-0.0276784 -4.96e-06 -0.00263531)
(-0.0277338 -9.78353e-06 -0.00892288)
(-0.0270004 -1.4282e-05 -0.0170537)
(-0.0239615 -1.6611e-05 -0.0281044)
(-0.0106565 -8.25696e-06 -0.0408338)
(-0.0103493 2.22483e-05 0.0395702)
(-0.023342 3.55178e-05 0.0280816)
(-0.026598 2.28738e-05 0.0173222)
(-0.0275037 1.02814e-05 0.00930226)
(-0.0276081 1.74607e-07 0.00304064)
(-0.027682 -8.66546e-06 -0.0026378)
(-0.0277372 -1.7731e-05 -0.00892635)
(-0.0270024 -2.73805e-05 -0.0170591)
(-0.0239549 -3.4455e-05 -0.0281128)
(-0.0106495 -1.2256e-05 -0.0408326)
(-0.0103043 2.8156e-05 0.0394612)
(-0.0232572 7.16022e-05 0.0280066)
(-0.0265161 4.07993e-05 0.0172673)
(-0.0274162 1.72183e-05 0.00926865)
(-0.0275177 1.13833e-06 0.003027)
(-0.0275909 -1.2393e-05 -0.00263257)
(-0.0276471 -2.79448e-05 -0.00890136)