/*--------------------------------*- C++ -*----------------------------------*\
  =========                 |
  \\      /  F ield         | OpenFOAM: The Open Source CFD Toolbox
   \\    /   O peration     | Website:  https://openfoam.org
    \\  /    A nd           | Version:  9
     \\/     M anipulation  |
\*---------------------------------------------------------------------------*/
FoamFile
{
    format      ascii;
    class       volVectorField;
    location    "0.01";
    object      U;
}
// * * * * * * * * * * * * * * * * * * * * * * * * * * * * * * * * * * * * * //

dimensions      [0 1 -1 0 0 0 0];

internalField   nonuniform List<vector> 
8000
(
(0.211917 -0.00204504 0.102748)
(0.252415 -0.008112 0.0675872)
(0.348783 -0.00741935 0.0321449)
(0.404304 -0.00520148 0.0149705)
(0.431921 -0.0034554 0.00696876)
(0.447083 -0.00222136 0.00325985)
(0.455751 -0.00137757 0.00156683)
(0.46071 -0.000810688 0.000776035)
(0.46345 -0.000414317 0.000372788)
(0.464703 -0.000106038 0.000125297)
(0.464762 0.000176714 -7.96397e-05)
(0.463626 0.000488286 -0.000323698)
(0.461008 0.000887849 -0.00070957)
(0.456196 0.00145022 -0.00144654)
(0.447734 0.00226559 -0.00301476)
(0.43285 0.00340331 -0.00651515)
(0.405745 0.00485218 -0.0143473)
(0.351077 0.00641677 -0.0317283)
(0.253987 0.00625287 -0.068178)
(0.213575 -0.000290977 -0.10409)
(0.274108 -0.00575028 0.146865)
(0.353702 -0.0170359 0.111773)
(0.500807 -0.0162501 0.0603005)
(0.589014 -0.0121258 0.031166)
(0.635284 -0.00843009 0.0159646)
(0.661623 -0.00559795 0.00823399)
(0.677101 -0.003555 0.00435968)
(0.686201 -0.0021199 0.00236087)
(0.69139 -0.00108025 0.00123586)
(0.693911 -0.000254287 0.000493152)
(0.694291 0.000504099 -0.000129339)
(0.692568 0.00132412 -0.000822822)
(0.688315 0.00233991 -0.00181796)
(0.68043 0.0037062 -0.00353983)
(0.666629 0.00558685 -0.0068913)
(0.642543 0.00806541 -0.0138049)
(0.599275 0.0109874 -0.0281717)
(0.514058 0.0137294 -0.0573533)
(0.364308 0.0129493 -0.111049)
(0.280005 0.00123626 -0.148281)
(0.282521 -0.00731253 0.15661)
(0.373678 -0.0159917 0.124594)
(0.536817 -0.0161047 0.0701063)
(0.635705 -0.0130099 0.0376046)
(0.688447 -0.00958419 0.0198976)
(0.718828 -0.00663896 0.0105659)
(0.73684 -0.00434949 0.00573634)
(0.747539 -0.00263972 0.00316843)
(0.753731 -0.00133967 0.00168354)
(0.756839 -0.000275004 0.00068431)
(0.757473 0.000708078 -0.000155651)
(0.755698 0.00174883 -0.00107568)
(0.751052 0.00298325 -0.00235927)
(0.742316 0.00454635 -0.00451397)
(0.726911 0.00654501 -0.00859161)
(0.699873 0.00896 -0.0167884)
(0.651234 0.0114718 -0.0333827)
(0.555921 0.0132459 -0.0660177)
(0.388729 0.0119126 -0.12344)
(0.290118 0.00355118 -0.15838)
(0.283429 -0.00633742 0.158449)
(0.377849 -0.01206 0.127777)
(0.546488 -0.0125826 0.0728668)
(0.649252 -0.0107399 0.0395713)
(0.70436 -0.00828319 0.0211575)
(0.736163 -0.00595621 0.0113292)
(0.755026 -0.00401867 0.00618911)
(0.766249 -0.00248589 0.0034325)
(0.77278 -0.00126534 0.00182735)
(0.776113 -0.000235961 0.000741948)
(0.776887 0.000720807 -0.000170909)
(0.775174 0.00171468 -0.00116589)
(0.770498 0.0028473 -0.00254229)
(0.76158 0.0042046 -0.00483311)
(0.745704 0.00582812 -0.00913625)
(0.717619 0.00764229 -0.0177249)
(0.666903 0.00933657 -0.0349713)
(0.567719 0.0102408 -0.0685223)
(0.394338 0.00900534 -0.126686)
(0.291488 0.00382419 -0.160591)
(0.283462 -0.00468056 0.158578)
(0.378935 -0.00841745 0.128266)
(0.549639 -0.00897074 0.0733335)
(0.653945 -0.00794215 0.0399005)
(0.709968 -0.00634738 0.0213477)
(0.742258 -0.00471295 0.0114222)
(0.761358 -0.00326668 0.00622845)
(0.772698 -0.00206095 0.0034466)
(0.7793 -0.00105907 0.00183052)
(0.782691 -0.000190516 0.000740085)
(0.783523 0.000622229 -0.000175873)
(0.781867 0.00145294 -0.00117428)
(0.777233 0.00236682 -0.00255655)
(0.768307 0.00341041 -0.0048615)
(0.752291 0.00458939 -0.00920008)
(0.723793 0.00582388 -0.0178689)
(0.67219 0.00688455 -0.0352678)
(0.571398 0.00733333 -0.069039)
(0.395707 0.00642238 -0.127353)
(0.291577 0.0031631 -0.160963)
(0.283464 -0.00323031 0.158431)
(0.379377 -0.00568459 0.128132)
(0.550949 -0.00614286 0.0732044)
(0.655928 -0.00557837 0.0397714)
(0.712335 -0.00458369 0.0212239)
(0.744791 -0.00349593 0.0113132)
(0.763932 -0.00248149 0.00614161)
(0.775259 -0.00159586 0.00338429)
(0.781842 -0.000831656 0.0017915)
(0.785226 -0.000152606 0.000722078)
(0.786072 0.000487017 -0.000174318)
(0.784449 0.00113228 -0.00115327)
(0.779853 0.00182145 -0.00251478)
(0.770947 0.00257716 -0.00479801)
(0.754886 0.00339163 -0.00911767)
(0.726206 0.00420154 -0.0177791)
(0.674196 0.00485578 -0.0351946)
(0.572703 0.00508699 -0.0690119)
(0.396099 0.00446596 -0.127371)
(0.291539 0.00235917 -0.160949)
(0.283489 -0.00213945 0.158293)
(0.379637 -0.00374119 0.127937)
(0.551618 -0.00408323 0.0730043)
(0.656921 -0.0037757 0.0395872)
(0.713509 -0.00316894 0.0210663)
(0.746027 -0.00246948 0.0111869)
(0.765159 -0.00178815 0.00604705)
(0.77645 -0.00116995 0.00331911)
(0.782995 -0.00061937 0.00175217)
(0.786357 -0.000119891 0.000705466)
(0.787199 0.000353418 -0.000169947)
(0.785588 0.000826211 -0.00112806)
(0.781015 0.00131953 -0.00246732)
(0.772122 0.00184333 -0.0047263)
(0.756042 0.0023874 -0.00902105)
(0.727271 0.00290779 -0.0176611)
(0.675064 0.0033104 -0.0350662)
(0.57325 0.00343517 -0.0688912)
(0.396259 0.00302563 -0.127274)
(0.291522 0.0016547 -0.160883)
(0.283519 -0.00134153 0.158205)
(0.379804 -0.00234615 0.127798)
(0.551997 -0.0025796 0.0728568)
(0.65747 -0.00241568 0.0394509)
(0.714152 -0.0020589 0.0209505)
(0.7467 -0.00163049 0.0110948)
(0.765819 -0.0011989 0.00597851)
(0.77708 -0.000795455 0.00327216)
(0.783594 -0.000427255 0.00172425)
(0.786934 -8.7834e-05 0.0006944)
(0.787768 0.000235394 -0.000165374)
(0.786161 0.000556062 -0.00110801)
(0.781596 0.000885034 -0.00243093)
(0.77271 0.00122618 -0.00467228)
(0.756617 0.00157114 -0.0089488)
(0.727797 0.00189223 -0.0175723)
(0.675489 0.00213375 -0.0349669)
(0.573519 0.00220223 -0.0687928)
(0.396349 0.00194419 -0.127191)
(0.291524 0.00108118 -0.160833)
(0.283541 -0.000735586 0.158156)
(0.379905 -0.00128924 0.127718)
(0.552209 -0.00142464 0.0727707)
(0.657772 -0.00134497 0.0393707)
(0.714505 -0.00115786 0.0208821)
(0.747069 -0.000926759 0.0110402)
(0.766181 -0.00068855 0.00593787)
(0.777424 -0.000461318 0.00324435)
(0.783918 -0.000250486 0.00170788)
(0.787245 -5.40126e-05 0.000688283)
(0.788071 0.000133741 -0.000161923)
(0.786463 0.000319223 -0.00109512)
(0.781901 0.000507457 -0.0024082)
(0.773016 0.000699695 -0.0046391)
(0.756915 0.000890758 -0.00890493)
(0.728068 0.00106558 -0.0175188)
(0.675708 0.00119489 -0.0349069)
(0.573661 0.00122956 -0.0687329)
(0.396405 0.00108681 -0.12714)
(0.291531 0.000608924 -0.160803)
(0.283552 -0.00023393 0.158135)
(0.379952 -0.000411204 0.127682)
(0.552306 -0.000455583 0.0727324)
(0.657908 -0.000431814 0.0393349)
(0.714664 -0.000373563 0.0208515)
(0.747236 -0.000300582 0.0110158)
(0.766345 -0.000224486 0.00591958)
(0.777579 -0.000151159 0.00323184)
(0.784065 -8.25566e-05 0.00170057)
(0.787384 -1.82709e-05 0.000685684)
(0.788207 4.32683e-05 -0.000160107)
(0.786598 0.00010394 -0.00108896)
(0.782037 0.000165198 -0.00239755)
(0.773151 0.000227296 -0.00462376)
(0.757045 0.000288492 -0.00888483)
(0.728186 0.000344028 -0.0174944)
(0.675804 0.000384788 -0.0348798)
(0.573724 0.000395417 -0.0687057)
(0.396432 0.000349676 -0.127117)
(0.291535 0.000196493 -0.16079)
(0.283552 0.000235066 0.158135)
(0.379952 0.000411293 0.127682)
(0.552306 0.000455591 0.0727324)
(0.657908 0.00043185 0.0393349)
(0.714664 0.000373635 0.0208515)
(0.747236 0.000300669 0.0110158)
(0.766345 0.000224564 0.00591958)
(0.777579 0.000151204 0.00323185)
(0.784065 8.25712e-05 0.00170057)
(0.787384 1.8274e-05 0.000685682)
(0.788207 -4.32943e-05 -0.000160105)
(0.786598 -0.000104003 -0.00108896)
(0.782037 -0.000165272 -0.00239756)
(0.773151 -0.000227376 -0.00462376)
(0.757045 -0.000288594 -0.00888484)
(0.728186 -0.000344143 -0.0174944)
(0.675804 -0.000384913 -0.0348798)
(0.573724 -0.000395544 -0.0687057)
(0.396432 -0.00034977 -0.127117)
(0.291535 -0.00019645 -0.16079)
(0.283541 0.00073683 0.158156)
(0.379905 0.00128937 0.127718)
(0.552209 0.0014247 0.0727707)
(0.657772 0.00134506 0.0393707)
(0.714505 0.00115797 0.0208821)
(0.747069 0.000926875 0.0110403)
(0.766181 0.000688657 0.00593788)
(0.777424 0.000461397 0.00324437)
(0.783918 0.000250538 0.00170789)
(0.787245 5.4052e-05 0.000688286)
(0.788071 -0.000133733 -0.000161909)
(0.786463 -0.000319254 -0.0010951)
(0.781901 -0.000507504 -0.00240819)
(0.773016 -0.000699754 -0.0046391)
(0.756915 -0.000890842 -0.00890493)
(0.728068 -0.00106568 -0.0175188)
(0.675708 -0.001195 -0.034907)
(0.573661 -0.00122968 -0.0687329)
(0.396405 -0.0010869 -0.12714)
(0.291531 -0.000608884 -0.160803)
(0.283519 0.00134299 0.158205)
(0.379804 0.00234643 0.127798)
(0.551997 0.00257978 0.0728569)
(0.65747 0.00241587 0.039451)
(0.714152 0.00205908 0.0209505)
(0.746699 0.00163065 0.0110948)
(0.765819 0.00119904 0.00597853)
(0.777079 0.000795547 0.00327219)
(0.783594 0.000427311 0.00172426)
(0.786934 8.78654e-05 0.0006944)
(0.787768 -0.000235399 -0.00016536)
(0.78616 -0.000556106 -0.00110799)
(0.781596 -0.000885095 -0.00243092)
(0.77271 -0.00122625 -0.00467228)
(0.756617 -0.00157124 -0.00894879)
(0.727797 -0.00189234 -0.0175724)
(0.675489 -0.00213388 -0.0349669)
(0.573519 -0.00220235 -0.0687928)
(0.396349 -0.00194429 -0.127191)
(0.291524 -0.00108114 -0.160833)
(0.283489 0.00214135 0.158293)
(0.379636 0.0037417 0.127937)
(0.551617 0.00408364 0.0730043)
(0.656921 0.00377605 0.0395872)
(0.713508 0.00316925 0.0210664)
(0.746027 0.00246971 0.011187)
(0.765159 0.00178832 0.00604708)
(0.77645 0.00117005 0.00331915)
(0.782995 0.00061942 0.00175219)
(0.786357 0.000119903 0.000705469)
(0.787199 -0.000353445 -0.000169935)
(0.785588 -0.000826273 -0.00112804)
(0.781015 -0.00131961 -0.00246732)
(0.772122 -0.00184342 -0.00472629)
(0.756042 -0.00238751 -0.00902104)
(0.727271 -0.00290792 -0.0176612)
(0.675064 -0.00331054 -0.0350662)
(0.57325 -0.0034353 -0.0688912)
(0.396259 -0.00302574 -0.127274)
(0.291522 -0.00165467 -0.160883)
(0.283464 0.00323283 0.158431)
(0.379377 0.00568536 0.128132)
(0.550948 0.00614352 0.0732044)
(0.655928 0.00557891 0.0397715)
(0.712335 0.00458413 0.021224)
(0.744791 0.00349624 0.0113133)
(0.763931 0.00248172 0.00614166)
(0.775259 0.00159601 0.00338434)
(0.781841 0.000831739 0.00179155)
(0.785226 0.000152644 0.0007221)
(0.786072 -0.000487021 -0.000174293)
(0.784449 -0.00113233 -0.00115324)
(0.779853 -0.00182152 -0.00251478)
(0.770947 -0.00257725 -0.00479799)
(0.754886 -0.00339174 -0.00911765)
(0.726206 -0.00420167 -0.0177791)
(0.674196 -0.00485591 -0.0351946)
(0.572703 -0.00508713 -0.0690119)
(0.396099 -0.00446607 -0.127371)
(0.291539 -0.00235916 -0.160949)
(0.283462 0.00468407 0.158578)
(0.378935 0.00841857 0.128266)
(0.549639 0.00897162 0.0733334)
(0.653945 0.00794286 0.0399005)
(0.709968 0.00634793 0.0213477)
(0.742258 0.00471332 0.0114223)
(0.761358 0.00326696 0.00622849)
(0.772698 0.00206113 0.00344664)
(0.7793 0.00105918 0.00183057)
(0.782691 0.000190579 0.000740102)
(0.783523 -0.00062221 -0.000175862)
(0.781867 -0.00145297 -0.00117427)
(0.777233 -0.00236688 -0.00255656)
(0.768307 -0.00341049 -0.00486148)
(0.752291 -0.00458949 -0.00920005)
(0.723794 -0.00582398 -0.0178689)
(0.67219 -0.00688467 -0.0352678)
(0.571398 -0.00733346 -0.069039)
(0.395707 -0.00642245 -0.127353)
(0.291577 -0.00316309 -0.160964)
(0.283429 0.00634293 0.158448)
(0.377849 0.0120613 0.127776)
(0.546487 0.0125835 0.0728662)
(0.649251 0.0107406 0.0395711)
(0.704359 0.00828372 0.0211575)
(0.736163 0.00595659 0.0113293)
(0.755025 0.00401895 0.00618914)
(0.766248 0.00248607 0.00343254)
(0.77278 0.00126546 0.0018274)
(0.776113 0.000236038 0.000741975)
(0.776887 -0.000720769 -0.000170883)
(0.775174 -0.00171469 -0.00116587)
(0.770498 -0.00284734 -0.00254228)
(0.76158 -0.00420465 -0.00483307)
(0.745704 -0.00582819 -0.00913621)
(0.717619 -0.00764236 -0.0177249)
(0.666903 -0.00933666 -0.0349713)
(0.567719 -0.0102408 -0.0685223)
(0.394338 -0.00900538 -0.126686)
(0.291488 -0.00382415 -0.160591)
(0.282522 0.00731545 0.156609)
(0.373678 0.0159914 0.124592)
(0.536816 0.016105 0.0701051)
(0.635704 0.01301 0.0376042)
(0.688446 0.0095845 0.0198975)
(0.718827 0.00663924 0.0105659)
(0.73684 0.00434971 0.00573636)
(0.747539 0.0026399 0.00316845)
(0.753731 0.00133979 0.00168356)
(0.756839 0.000275088 0.000684316)
(0.757473 -0.000708022 -0.000155626)
(0.755698 -0.00174881 -0.00107566)
(0.751052 -0.00298327 -0.00235929)
(0.742316 -0.00454636 -0.00451397)
(0.726911 -0.00654503 -0.00859161)
(0.699873 -0.00896004 -0.0167884)
(0.651234 -0.0114719 -0.0333827)
(0.555921 -0.013246 -0.0660177)
(0.388729 -0.0119127 -0.12344)
(0.290118 -0.00355115 -0.15838)
(0.274116 0.00575173 0.146856)
(0.353709 0.0170283 0.111767)
(0.500808 0.0162491 0.0602981)
(0.589013 0.0121255 0.031165)
(0.635283 0.00843018 0.0159642)
(0.661622 0.00559818 0.00823392)
(0.6771 0.00355523 0.00435964)
(0.686201 0.00212008 0.00236089)
(0.691389 0.00108038 0.00123586)
(0.693911 0.000254381 0.000493127)
(0.694291 -0.000504023 -0.000129322)
(0.692568 -0.00132407 -0.000822785)
(0.688315 -0.00233989 -0.00181798)
(0.68043 -0.00370618 -0.00353986)
(0.666629 -0.00558684 -0.00689131)
(0.642543 -0.0080654 -0.013805)
(0.599275 -0.0109874 -0.0281718)
(0.514058 -0.0137294 -0.0573533)
(0.364308 -0.0129493 -0.111049)
(0.280005 -0.00123625 -0.148281)
(0.211925 0.0020369 0.10274)
(0.252414 0.00810324 0.0675788)
(0.348781 0.00741782 0.0321435)
(0.404299 0.005201 0.01497)
(0.431918 0.00345528 0.00696866)
(0.447081 0.00222138 0.00325987)
(0.455749 0.00137763 0.00156686)
(0.460709 0.00081075 0.000776079)
(0.463449 0.000414356 0.000372824)
(0.464702 0.00010605 0.000125297)
(0.464761 -0.000176702 -7.96294e-05)
(0.463626 -0.000488275 -0.000323681)
(0.461008 -0.000887838 -0.00070958)
(0.456195 -0.00145021 -0.00144655)
(0.447734 -0.00226559 -0.00301476)
(0.43285 -0.0034033 -0.00651516)
(0.405745 -0.00485215 -0.0143473)
(0.351077 -0.00641673 -0.0317283)
(0.253987 -0.00625279 -0.068178)
(0.213575 0.000290988 -0.10409)
(-0.00865013 -0.00297474 0.179219)
(-0.0223598 -0.00736499 0.138734)
(0.0276431 -0.00625749 0.0792863)
(0.0707137 -0.00423579 0.0440916)
(0.100423 -0.00274718 0.0244641)
(0.120404 -0.00172612 0.013714)
(0.13341 -0.00103449 0.00784699)
(0.141575 -0.000564357 0.00451857)
(0.146378 -0.000223175 0.0024617)
(0.14867 5.80328e-05 0.000992876)
(0.148832 0.000333207 -0.000297698)
(0.146853 0.000648477 -0.00174411)
(0.142326 0.00105424 -0.00375574)
(0.134361 0.00160869 -0.00702294)
(0.121412 0.00237162 -0.0128631)
(0.10123 0.00336948 -0.0238135)
(0.0710552 0.0045744 -0.0443942)
(0.0274816 0.00590871 -0.0819864)
(-0.0230433 0.00604571 -0.144707)
(-0.00734796 0.000789964 -0.18596)
(-0.00423267 -0.00757495 0.266333)
(-0.00915545 -0.0172705 0.239532)
(0.0784592 -0.0157816 0.15329)
(0.155741 -0.0116778 0.0926024)
(0.211404 -0.00809722 0.0548015)
(0.250155 -0.00534987 0.0323792)
(0.276104 -0.0033429 0.0192944)
(0.292822 -0.00189508 0.0114418)
(0.302929 -0.000801849 0.00637054)
(0.308012 0.000112193 0.00265429)
(0.30882 0.000992698 -0.000619014)
(0.305388 0.00196909 -0.00419981)
(0.29704 0.00317167 -0.00898143)
(0.28223 0.00473329 -0.0163837)
(0.258269 0.00676122 -0.0289434)
(0.221282 0.00923977 -0.0511805)
(0.166716 0.0119276 -0.0902888)
(0.0891209 0.0142942 -0.155349)
(-0.00215497 0.0136295 -0.248174)
(0.000973552 0.00306293 -0.277321)
(-0.00278384 -0.00920634 0.288952)
(-0.00118179 -0.0191535 0.273235)
(0.101285 -0.0190204 0.182822)
(0.191688 -0.0154183 0.114479)
(0.257863 -0.0114192 0.069701)
(0.30463 -0.00792908 0.0421201)
(0.336363 -0.00516069 0.0255248)
(0.357077 -0.0030338 0.0153135)
(0.369802 -0.00135738 0.00859143)
(0.376403 7.0345e-05 0.00360686)
(0.377784 0.00143249 -0.000788871)
(0.374021 0.00289696 -0.00554942)
(0.364352 0.00461954 -0.0117943)
(0.34699 0.00673341 -0.0212571)
(0.318792 0.00929981 -0.0369437)
(0.2752 0.0121867 -0.0640157)
(0.210918 0.0149073 -0.110224)
(0.119607 0.0164861 -0.184039)
(0.0108611 0.0145387 -0.282964)
(0.00435419 0.00505659 -0.301959)
(-0.00251715 -0.00843599 0.294587)
(0.00212195 -0.0166762 0.283494)
(0.110626 -0.0174408 0.193071)
(0.206179 -0.0149703 0.122789)
(0.276463 -0.0116167 0.0757273)
(0.326366 -0.00838831 0.0462327)
(0.360387 -0.0056477 0.0282317)
(0.382721 -0.00342518 0.0170263)
(0.396553 -0.00160334 0.00958401)
(0.403855 -2.10726e-05 0.00403454)
(0.40559 0.00148389 -0.000863315)
(0.401849 0.0030633 -0.00614451)
(0.39183 0.00485012 -0.013017)
(0.373637 0.00693966 -0.0233317)
(0.343906 0.00933892 -0.0402555)
(0.297739 0.0118656 -0.0691333)
(0.229459 0.0140146 -0.117775)
(0.132338 0.0148499 -0.19416)
(0.0161981 0.0126885 -0.294057)
(0.00530976 0.00537117 -0.308726)
(-0.00241838 -0.00673845 0.295663)
(0.00364649 -0.0130065 0.286003)
(0.114764 -0.0140471 0.195899)
(0.21246 -0.0125222 0.125256)
(0.284343 -0.0100656 0.0775955)
(0.33538 -0.00750663 0.0475388)
(0.370179 -0.00520396 0.0291031)
(0.393047 -0.00324509 0.0175835)
(0.407252 -0.00158026 0.00991137)
(0.414814 -0.000105056 0.00418112)
(0.416717 0.00129853 -0.000877067)
(0.413053 0.00274385 -0.00632358)
(0.402993 0.00432594 -0.0133945)
(0.384576 0.00610136 -0.0239791)
(0.354314 0.0080476 -0.041296)
(0.307125 0.00999339 -0.0707421)
(0.237138 0.011532 -0.120121)
(0.137481 0.0119527 -0.197207)
(0.0182075 0.0101326 -0.297208)
(0.00553978 0.00470535 -0.310444)
(-0.00230646 -0.00497207 0.295607)
(0.00451873 -0.00952884 0.286195)
(0.116882 -0.0105164 0.196233)
(0.215572 -0.00963072 0.125586)
(0.288113 -0.00795647 0.0778454)
(0.339539 -0.00609252 0.0477022)
(0.374546 -0.0043293 0.0292034)
(0.397524 -0.00276551 0.0176453)
(0.411797 -0.00139299 0.00995129)
(0.419417 -0.000153587 0.00420795)
(0.421379 0.00102833 -0.000859927)
(0.417768 0.00222801 -0.00631722)
(0.407738 0.00350625 -0.013406)
(0.389279 0.00489221 -0.0240262)
(0.358833 0.00635466 -0.0414137)
(0.311215 0.00775778 -0.0709844)
(0.240459 0.00880855 -0.120543)
(0.139648 0.0090141 -0.197811)
(0.0190067 0.00763137 -0.297841)
(0.00559999 0.00370896 -0.310746)
(-0.00220575 -0.00345516 0.295359)
(0.00507316 -0.00663959 0.285857)
(0.118107 -0.00743843 0.195918)
(0.217315 -0.00694593 0.125315)
(0.290165 -0.00585984 0.0776171)
(0.341729 -0.00458175 0.047517)
(0.376765 -0.00332151 0.0290634)
(0.399721 -0.00216425 0.0175505)
(0.413965 -0.0011206 0.00989951)
(0.421569 -0.000162511 0.0041965)
(0.423538 0.000754011 -0.000832689)
(0.419953 0.00167466 -0.00625159)
(0.40995 0.00263522 -0.0133018)
(0.391492 0.00364855 -0.023886)
(0.360974 0.00468586 -0.0412466)
(0.313156 0.00564978 -0.07081)
(0.242025 0.00634279 -0.120391)
(0.140657 0.00643868 -0.197705)
(0.0193794 0.00544938 -0.297779)
(0.00563057 0.00270808 -0.310695)
(-0.00213106 -0.00223756 0.295151)
(0.00542714 -0.00432168 0.285514)
(0.118848 -0.00489279 0.195559)
(0.218352 -0.0046319 0.124988)
(0.291369 -0.00396753 0.0773407)
(0.342991 -0.00315061 0.0472973)
(0.378016 -0.0023187 0.0289003)
(0.40093 -0.00153389 0.0174406)
(0.415129 -0.000810996 0.00983811)
(0.422703 -0.00013862 0.00417963)
(0.424661 0.000506585 -0.000807277)
(0.421083 0.00115013 -0.00618412)
(0.411095 0.0018114 -0.0131912)
(0.39264 0.00249494 -0.0237315)
(0.362087 0.00317903 -0.0410509)
(0.314164 0.00379995 -0.070583)
(0.242836 0.00423335 -0.120151)
(0.141181 0.00427502 -0.19748)
(0.0195839 0.00361669 -0.297597)
(0.0056551 0.00181602 -0.310593)
(-0.00208406 -0.00125131 0.295021)
(0.00563668 -0.00242738 0.285285)
(0.119276 -0.00276684 0.195309)
(0.218948 -0.00264239 0.124756)
(0.292059 -0.00228591 0.0771431)
(0.343712 -0.00183389 0.0471397)
(0.378726 -0.0013633 0.0287831)
(0.40161 -0.000911105 0.0173614)
(0.415775 -0.000488526 0.00979379)
(0.423324 -9.18987e-05 0.00416737)
(0.42527 0.000289616 -0.000789039)
(0.421692 0.000668499 -0.00613561)
(0.41171 0.001054 -0.0131116)
(0.393255 0.00144719 -0.0236203)
(0.362681 0.00183485 -0.0409094)
(0.314701 0.0021813 -0.0704164)
(0.243268 0.00241846 -0.119972)
(0.141462 0.00243443 -0.197306)
(0.0197005 0.0020585 -0.297454)
(0.00567325 0.00103821 -0.310517)
(-0.00206181 -0.00040215 0.294961)
(0.00573372 -0.000782471 0.285175)
(0.119473 -0.000894816 0.195188)
(0.219221 -0.000858185 0.124643)
(0.292377 -0.000746005 0.0770458)
(0.344045 -0.000601528 0.0470617)
(0.379054 -0.000449447 0.0287249)
(0.401923 -0.000301967 0.0173221)
(0.416072 -0.000163124 0.00977178)
(0.423608 -3.21911e-05 0.0041614)
(0.425547 9.38969e-05 -0.000779729)
(0.421968 0.000218847 -0.00611117)
(0.411986 0.000345384 -0.0130718)
(0.39353 0.000473592 -0.0235647)
(0.362946 0.000599046 -0.0408387)
(0.314941 0.000710311 -0.0703332)
(0.243461 0.000785733 -0.119882)
(0.141589 0.000789703 -0.197219)
(0.019755 0.00066753 -0.297382)
(0.00568283 0.00033723 -0.310479)
(-0.00206183 0.000402268 0.294961)
(0.00573369 0.000780992 0.285175)
(0.119473 0.000893334 0.195188)
(0.219221 0.000856979 0.124643)
(0.292377 0.000745082 0.0770459)
(0.344045 0.000600797 0.0470618)
(0.379054 0.000448838 0.028725)
(0.401923 0.000301394 0.0173221)
(0.416072 0.000162603 0.00977178)
(0.423608 3.17529e-05 0.0041614)
(0.425547 -9.43249e-05 -0.000779721)
(0.421968 -0.000219304 -0.00611116)
(0.411986 -0.000345829 -0.0130718)
(0.39353 -0.000474028 -0.0235647)
(0.362946 -0.000599507 -0.0408387)
(0.314941 -0.000710784 -0.0703333)
(0.243461 -0.000786215 -0.119882)
(0.141589 -0.000790167 -0.197219)
(0.019755 -0.000667901 -0.297382)
(0.00568284 -0.00033733 -0.310479)
(-0.00208409 0.00125148 0.295021)
(0.00563661 0.00242585 0.285285)
(0.119276 0.00276535 0.195309)
(0.218948 0.0026412 0.124757)
(0.292059 0.00228503 0.0771432)
(0.343712 0.0018332 0.0471398)
(0.378726 0.00136275 0.0287831)
(0.40161 0.000910615 0.0173615)
(0.415775 0.000488091 0.00979381)
(0.423324 9.15322e-05 0.0041674)
(0.42527 -0.00028998 -0.000788998)
(0.421692 -0.000668891 -0.00613558)
(0.41171 -0.00105438 -0.0131116)
(0.393255 -0.00144757 -0.0236203)
(0.362681 -0.00183525 -0.0409094)
(0.314701 -0.00218173 -0.0704165)
(0.243268 -0.0024189 -0.119972)
(0.141462 -0.00243487 -0.197306)
(0.0197006 -0.00205887 -0.297454)
(0.00567326 -0.00103831 -0.310517)
(-0.00213109 0.00223787 0.295151)
(0.00542707 0.0043202 0.285514)
(0.118848 0.00489137 0.195559)
(0.218352 0.00463078 0.124988)
(0.291368 0.00396671 0.0773409)
(0.342991 0.00314998 0.0472974)
(0.378016 0.00231819 0.0289004)
(0.40093 0.00153343 0.0174407)
(0.415129 0.000810569 0.00983817)
(0.422703 0.000138225 0.00417968)
(0.424661 -0.000506992 -0.00080721)
(0.421083 -0.00115056 -0.00618407)
(0.411095 -0.0018118 -0.0131912)
(0.39264 -0.00249534 -0.0237315)
(0.362087 -0.00317944 -0.0410509)
(0.314165 -0.00380038 -0.070583)
(0.242836 -0.0042338 -0.120151)
(0.141181 -0.00427545 -0.19748)
(0.0195839 -0.00361706 -0.297597)
(0.00565509 -0.00181612 -0.310593)
(-0.00220578 0.00345572 0.295359)
(0.00507306 0.00663821 0.285857)
(0.118107 0.00743712 0.195918)
(0.217315 0.00694493 0.125316)
(0.290165 0.00585911 0.0776174)
(0.341729 0.00458121 0.0475173)
(0.376765 0.00332105 0.0290636)
(0.399721 0.00216382 0.0175507)
(0.413965 0.00112017 0.0098996)
(0.421569 0.000162083 0.00419656)
(0.423538 -0.000754457 -0.000832615)
(0.419953 -0.00167512 -0.00625153)
(0.40995 -0.00263564 -0.0133018)
(0.391492 -0.00364897 -0.023886)
(0.360974 -0.00468629 -0.0412465)
(0.313157 -0.00565022 -0.07081)
(0.242025 -0.00634323 -0.120391)
(0.140657 -0.0064391 -0.197705)
(0.0193795 -0.00544974 -0.297779)
(0.00563057 -0.00270819 -0.310695)
(-0.00230645 0.00497295 0.295607)
(0.00451872 0.00952743 0.286195)
(0.116882 0.0105151 0.196233)
(0.215572 0.00962981 0.125586)
(0.288113 0.00795581 0.0778457)
(0.339539 0.00609207 0.0477025)
(0.374546 0.00432894 0.0292036)
(0.397524 0.00276517 0.0176455)
(0.411798 0.00139264 0.00995143)
(0.419418 0.000153227 0.00420803)
(0.421379 -0.00102872 -0.000859841)
(0.417769 -0.00222841 -0.00631716)
(0.407738 -0.00350664 -0.0134059)
(0.38928 -0.0048926 -0.0240262)
(0.358833 -0.00635506 -0.0414137)
(0.311215 -0.00775817 -0.0709844)
(0.240459 -0.00880895 -0.120543)
(0.139648 -0.0090145 -0.197811)
(0.0190068 -0.00763171 -0.297841)
(0.00560002 -0.00370907 -0.310746)
(-0.00241825 0.00673981 0.295663)
(0.00364676 0.0130049 0.286003)
(0.114764 0.0140457 0.195898)
(0.21246 0.0125213 0.125256)
(0.284343 0.010065 0.0775957)
(0.33538 0.00750622 0.0475391)
(0.37018 0.00520367 0.0291034)
(0.393048 0.00324483 0.0175837)
(0.407252 0.00158 0.00991152)
(0.414814 0.000104791 0.0041812)
(0.416718 -0.00129883 -0.000876988)
(0.413053 -0.00274419 -0.00632352)
(0.402994 -0.00432629 -0.0133945)
(0.384576 -0.0061017 -0.023979)
(0.354314 -0.00804794 -0.0412959)
(0.307125 -0.00999373 -0.0707421)
(0.237139 -0.0115323 -0.12012)
(0.137481 -0.011953 -0.197207)
(0.0182076 -0.0101329 -0.297208)
(0.00553983 -0.00470543 -0.310444)
(-0.00251668 0.00843793 0.294587)
(0.00212291 0.016674 0.283493)
(0.110628 0.017439 0.19307)
(0.20618 0.0149692 0.122789)
(0.276463 0.011616 0.0757274)
(0.326367 0.00838795 0.0462329)
(0.360387 0.00564746 0.0282318)
(0.382721 0.00342497 0.0170265)
(0.396553 0.00160315 0.00958417)
(0.403856 2.09097e-05 0.00403463)
(0.405591 -0.00148408 -0.000863212)
(0.401849 -0.00306355 -0.00614443)
(0.391831 -0.00485039 -0.0130169)
(0.373637 -0.00693991 -0.0233316)
(0.343906 -0.00933916 -0.0402554)
(0.297739 -0.0118658 -0.0691333)
(0.229459 -0.0140149 -0.117775)
(0.132338 -0.0148501 -0.19416)
(0.0161983 -0.0126887 -0.294057)
(0.00530982 -0.00537122 -0.308726)
(-0.00278227 0.00920699 0.288952)
(-0.00117936 0.0191498 0.273232)
(0.101287 0.0190177 0.18282)
(0.191689 0.0154167 0.114478)
(0.257864 0.0114184 0.0697009)
(0.30463 0.00792871 0.0421201)
(0.336363 0.00516052 0.0255249)
(0.357078 0.00303365 0.0153136)
(0.369803 0.00135722 0.00859152)
(0.376404 -7.04373e-05 0.00360693)
(0.377785 -0.00143259 -0.000788755)
(0.374021 -0.00289713 -0.00554933)
(0.364353 -0.00461973 -0.0117943)
(0.346991 -0.00673357 -0.021257)
(0.318792 -0.00929996 -0.0369436)
(0.2752 -0.0121869 -0.0640156)
(0.210918 -0.0149075 -0.110224)
(0.119607 -0.0164863 -0.184039)
(0.0108612 -0.0145388 -0.282964)
(0.00435416 -0.00505665 -0.301959)
(-0.00422741 0.00756859 0.266327)
(-0.00914904 0.0172633 0.239525)
(0.0784629 0.0157781 0.153286)
(0.155743 0.0116762 0.0926008)
(0.211405 0.00809662 0.0548009)
(0.250156 0.00534969 0.0323791)
(0.276105 0.00334286 0.0192944)
(0.292822 0.00189507 0.0114419)
(0.302929 0.000801804 0.00637058)
(0.308013 -0.000112207 0.0026543)
(0.30882 -0.000992712 -0.000618918)
(0.305388 -0.00196915 -0.00419972)
(0.29704 -0.00317175 -0.00898142)
(0.28223 -0.00473335 -0.0163836)
(0.258269 -0.00676127 -0.0289434)
(0.221283 -0.0092398 -0.0511804)
(0.166716 -0.0119276 -0.0902887)
(0.0891211 -0.0142943 -0.155349)
(-0.00215494 -0.0136295 -0.248174)
(0.000973434 -0.00306293 -0.277321)
(-0.00864185 0.00296607 0.179221)
(-0.0223534 0.00735912 0.138728)
(0.0276432 0.0062553 0.079286)
(0.0707123 0.00423495 0.0440916)
(0.100422 0.00274691 0.0244643)
(0.120403 0.00172604 0.0137143)
(0.133409 0.00103449 0.00784721)
(0.141575 0.000564384 0.00451874)
(0.146378 0.000223153 0.00246181)
(0.14867 -5.80513e-05 0.000992952)
(0.148832 -0.000333212 -0.000297608)
(0.146853 -0.00064849 -0.00174405)
(0.142326 -0.00105425 -0.00375571)
(0.134361 -0.00160871 -0.00702289)
(0.121413 -0.00237165 -0.0128631)
(0.10123 -0.00336947 -0.0238135)
(0.0710553 -0.00457436 -0.0443942)
(0.0274816 -0.00590867 -0.0819864)
(-0.0230433 -0.00604555 -0.144707)
(-0.00734799 -0.000789848 -0.18596)
(-0.0222037 -0.003226 0.125955)
(-0.0493883 -0.00484718 0.132699)
(-0.0421805 -0.00394254 0.0973275)
(-0.0245794 -0.0026522 0.0650589)
(-0.00701171 -0.00165746 0.0418352)
(0.00738195 -0.000981686 0.0265373)
(0.0180244 -0.000534044 0.0167414)
(0.0253286 -0.000233775 0.0103556)
(0.0298711 -1.23283e-05 0.00593569)
(0.032085 0.000176927 0.00252388)
(0.0321787 0.000373656 -0.000564126)
(0.0301197 0.000608211 -0.0039333)
(0.0256229 0.000912855 -0.00829362)
(0.0181569 0.00132237 -0.0146692)
(0.00702444 0.00186712 -0.0246594)
(-0.0082871 0.00254651 -0.0406686)
(-0.0270862 0.00331719 -0.0656252)
(-0.0457271 0.00407694 -0.101027)
(-0.0531722 0.0043036 -0.140177)
(-0.0235922 0.00226788 -0.134239)
(-0.0330629 -0.00782235 0.202177)
(-0.0739096 -0.0125885 0.244583)
(-0.0597885 -0.0112248 0.195458)
(-0.0263866 -0.00833088 0.138413)
(0.00819576 -0.0056948 0.0927329)
(0.0374265 -0.00366521 0.0605922)
(0.0596047 -0.00218658 0.0390105)
(0.0751644 -0.00111224 0.0244297)
(0.0850723 -0.000281543 0.014068)
(0.0901335 0.000437762 0.0059409)
(0.0907676 0.00115755 -0.00144232)
(0.0869466 0.00197375 -0.00941639)
(0.078179 0.00297853 -0.0195189)
(0.0635256 0.0042563 -0.0338796)
(0.0417706 0.00585687 -0.0556261)
(0.0121287 0.00772263 -0.0890181)
(-0.0238876 0.00962257 -0.13814)
(-0.059527 0.0110961 -0.201579)
(-0.0762793 0.0108302 -0.258322)
(-0.0340095 0.00549209 -0.217309)
(-0.0355775 -0.0090953 0.2268)
(-0.0789947 -0.0158532 0.288522)
(-0.0615071 -0.0155208 0.239571)
(-0.0216406 -0.0125802 0.174563)
(0.0202696 -0.00925897 0.119467)
(0.0562543 -0.00635431 0.0792933)
(0.083946 -0.00404155 0.0516112)
(0.103637 -0.00224187 0.0325422)
(0.116375 -0.000791396 0.0187984)
(0.123086 0.000479588 0.00792566)
(0.124274 0.00172304 -0.00196763)
(0.119929 0.00307742 -0.0125923)
(0.109492 0.00466515 -0.0259009)
(0.0918726 0.00657786 -0.0445386)
(0.0656512 0.00883161 -0.0722583)
(0.0299215 0.0112736 -0.113884)
(-0.0134981 0.0134702 -0.173319)
(-0.0567692 0.0146279 -0.246558)
(-0.0791711 0.0132132 -0.305346)
(-0.0359514 0.00648209 -0.245086)
(-0.0360448 -0.00826735 0.234706)
(-0.0794342 -0.0151623 0.304528)
(-0.0601568 -0.0157489 0.257312)
(-0.0176613 -0.0135006 0.190182)
(0.0271589 -0.0104405 0.13163)
(0.0658726 -0.00749358 0.0881193)
(0.0958588 -0.00497885 0.0577109)
(0.117335 -0.00291389 0.0365367)
(0.131358 -0.0011891 0.0211549)
(0.138887 0.00034187 0.00892795)
(0.140453 0.00182518 -0.00220798)
(0.136051 0.00339581 -0.0141305)
(0.12509 0.0051671 -0.0289742)
(0.10641 0.00720921 -0.0495974)
(0.0784829 0.00950187 -0.0799811)
(0.0403037 0.0118504 -0.125079)
(-0.00625307 0.013783 -0.188498)
(-0.0530187 0.0144771 -0.264883)
(-0.0785465 0.0125769 -0.323103)
(-0.0362017 0.00610594 -0.254572)
(-0.036 -0.00668199 0.236932)
(-0.0788516 -0.0126669 0.309591)