/*--------------------------------*- C++ -*----------------------------------*\
  =========                 |
  \\      /  F ield         | OpenFOAM: The Open Source CFD Toolbox
   \\    /   O peration     | Website:  https://openfoam.org
    \\  /    A nd           | Version:  9
     \\/     M anipulation  |
\*---------------------------------------------------------------------------*/
FoamFile
{
    format      ascii;
    class       volScalarField;
    location    "0.19";
    object      p;
}
// * * * * * * * * * * * * * * * * * * * * * * * * * * * * * * * * * * * * * //

dimensions      [0 2 -2 0 0 0 0];

internalField   nonuniform List<scalar> 
1000
(
6.65589e-08
-0.000310202
0.000397563
0.00194672
0.0042552
0.007098
0.0100461
0.0124922
0.0138355
0.0134153
0.000162416
-0.000429181
0.000233493
0.00184141
0.00428218
0.0073049
0.0104502
0.0130373
0.0143545
0.0135171
0.000516544
-0.000241603
0.000391642
0.00203108
0.00456358
0.00773574
0.0110402
0.0137186
0.014975
0.0137899
0.000835902
-1.15763e-05
0.000598139
0.00225071
0.00483478
0.00809102
0.0114871
0.0142122
0.0154255
0.0140397
0.00101803
0.000135934
0.00073373
0.00238853
0.00499187
0.0082823
0.0117165
0.0144598
0.0156537
0.0141845
0.001018
0.000135908
0.000733711
0.00238852
0.00499187
0.0082823
0.0117165
0.0144598
0.0156537
0.0141845
0.0008358
-1.1658e-05
0.000598081
0.00225067
0.00483476
0.00809101
0.0114871
0.0142122
0.0154255
0.0140397
0.000516341
-0.000241756
0.000391539
0.00203102
0.00456355
0.00773574
0.0110402
0.0137186
0.014975
0.0137899
0.000162066
-0.000429426
0.000233343
0.00184133
0.00428214
0.0073049
0.0104502
0.0130373
0.0143546
0.0135172
-3.83281e-07
-0.000310543
0.000397363
0.00194662
0.00425515
0.00709799
0.0100461
0.0124922
0.0138355
0.0134153
0.000196826
-0.000154867
0.000537912
0.00199642
0.00416282
0.0068583
0.00971567
0.0121684
0.0135748
0.0130321
0.000673505
7.73697e-06
0.000661647
0.00211721
0.00430282
0.00704382
0.00998018
0.0124862
0.0138443
0.0127588
0.00128489
0.000401071
0.00101305
0.00245423
0.0046566
0.00745176
0.0104739
0.0130236
0.0143126
0.0128445
0.00174279
0.000740937
0.00132009
0.00274642
0.00495736
0.00779074
0.0108631
0.0134372
0.0146796
0.0129872
0.00198023
0.000930774
0.00149296
0.00290999
0.00512293
0.00797265
0.0110671
0.0136515
0.0148742
0.0130922
0.0019802
0.000930751
0.00149295
0.00290998
0.00512293
0.00797265
0.0110671
0.0136515
0.0148742
0.0130922
0.00174271
0.000740867
0.00132004
0.00274639
0.00495735
0.00779074
0.0108631
0.0134372
0.0146796
0.0129872
0.00128473
0.000400946
0.00101297
0.00245419
0.00465658
0.00745176
0.0104739
0.0130236
0.0143126
0.0128445
0.000673249
7.54644e-06
0.000661525
0.00211715
0.00430279
0.00704381
0.00998019
0.0124862
0.0138443
0.0127589
0.000196475
-0.000155116
0.000537759
0.00199633
0.00416279
0.00685829
0.00971569
0.0121684
0.0135748
0.0130322
-0.00101902
-0.00149028
-0.000777332
0.000734849
0.00302803
0.00599761
0.00931654
0.0123762
0.0142973
0.013636
-0.000287171
-0.00118713
-0.000520707
0.000977525
0.00327653
0.00629196
0.00970112
0.0128351
0.0146873
0.0131991
0.000600218
-0.000595579
9.27332e-06
0.00146622
0.00375374
0.00680565
0.0103037
0.0134967
0.0152668
0.0132086
0.00123628
-0.000118925
0.000436337
0.00185476
0.00412633
0.00720028
0.0107451
0.0139709
0.0156894
0.0133114
0.00155518
0.000136003
0.000665025
0.00206108
0.00432109
0.00740154
0.0109654
0.0142052
0.0159034
0.0134019
0.00155516
0.000135984
0.000665012
0.00206108
0.00432109
0.00740154
0.0109654
0.0142052
0.0159034
0.0134019
0.00123621
-0.000118981
0.000436296
0.00185474
0.00412632
0.00720027
0.010745
0.0139709
0.0156894
0.0133114
0.000600097
-0.000595676
9.20453e-06
0.00146617
0.00375372
0.00680563
0.0103037
0.0134967
0.0152668
0.0132086
-0.000287344
-0.00118727
-0.000520803
0.000977466
0.00327649
0.00629193
0.00970111
0.0128351
0.0146873
0.0131991
-0.00101925
-0.00149045
-0.000777448
0.000734778
0.00302798
0.00599758
0.00931653
0.0123762
0.0142973
0.013636
-0.00387984
-0.00444729
-0.00364343
-0.0019735
0.00060947
0.00413111
0.0083806
0.0127531
0.0159233
0.0155184
-0.0028542
-0.00398589
-0.00323898
-0.00158453
0.0010108
0.00460212
0.00899655
0.013526
0.0166238
0.0150003
-0.00163332
-0.00315255
-0.00249947
-0.00092787
0.00161193
0.00519923
0.0097089
0.0143608
0.0174032
0.0150062
-0.000774511
-0.00250297
-0.00192882
-0.000434671
0.00204446
0.00559101
0.0101782
0.0149045
0.0179181
0.0151096
-0.000351382
-0.00216357
-0.00163213
-0.000182697
0.00226077
0.00579561
0.0103959
0.0151525
0.0181594
0.0151981
-0.0003514
-0.00216359
-0.00163214
-0.000182706
0.00226076
0.00579561
0.0103959
0.0151525
0.0181594
0.0151981
-0.000774563
-0.00250301
-0.00192885
-0.000434696
0.00204443
0.00559099
0.0101782
0.0149045
0.017918
0.0151096
-0.0016334
-0.00315262
-0.00249952
-0.000927911
0.00161189
0.00519919
0.00970887
0.0143608
0.0174031
0.0150062
-0.00285431
-0.00398598
-0.00323906
-0.00158459
0.00101076
0.00460208
0.00899652
0.0135259
0.0166238
0.0150003
-0.00387997
-0.0044474
-0.00364352
-0.00197356
0.000609419
0.00413107
0.00838056
0.012753
0.0159232
0.0155184
-0.0090151
-0.00954974
-0.00853629
-0.00663494
-0.00369717
0.000554576
0.00622618
0.01289
0.0186653
0.0197615
-0.00760814
-0.00888642
-0.00796146
-0.00610173
-0.00316992
0.00115594
0.00700086
0.0139887
0.0197874
0.0194517
-0.00598203
-0.00776881
-0.00701124
-0.00533816
-0.0025752
0.00168107
0.00755875
0.0147823
0.0206879
0.0196013
-0.00485958
-0.00691947
-0.00629942
-0.00478651
-0.00217259
0.00201004
0.00786929
0.0152324
0.0212229
0.0197831
-0.00431595
-0.00648399
-0.00593755
-0.00451346
-0.00198726
0.00212712
0.00798542
0.0154117
0.0214511
0.019893
-0.00431596
-0.006484
-0.00593756
-0.00451347
-0.00198727
0.00212712
0.00798541
0.0154117
0.0214511
0.019893
-0.00485962
-0.0069195
-0.00629944
-0.00478654
-0.00217262
0.00201002
0.00786928
0.0152324
0.0212229
0.0197831
-0.00598209
-0.00776886
-0.00701128
-0.00533819
-0.00257524
0.00168103
0.00755872
0.0147822
0.0206879
0.0196013
-0.00760822
-0.00888649
-0.00796151
-0.00610178
-0.00316997
0.00115589
0.00700082
0.0139887
0.0197874
0.0194517
-0.00901518
-0.00954981
-0.00853635
-0.00663499
-0.00369723
0.000554521
0.00622614
0.01289
0.0186653
0.0197615
-0.0173616
-0.0174429
-0.015961
-0.0137597
-0.0105486
-0.00562505
0.00186713
0.0121063
0.0229218
0.0286
-0.0154266
-0.0165403
-0.0152725
-0.0132547
-0.0102187
-0.00547385
0.00194809
0.0126911
0.0239631
0.0289372
-0.0132981
-0.0151069
-0.0141826
-0.0126067
-0.0100624
-0.00575221
0.00142817
0.0125164
0.024382
0.0293347
-0.0118646
-0.0140377
-0.0133704
-0.0121316
-0.00996465
-0.005998
0.000990825
0.0122802
0.0245404
0.0295978
-0.011185
-0.0134979
-0.0129613
-0.011897
-0.00992635
-0.00614164
0.000751476
0.0121326
0.0245838
0.0297154
-0.011185
-0.0134979
-0.0129613
-0.011897
-0.00992635
-0.00614164
0.000751473
0.0121326
0.0245838
0.0297154
-0.0118647
-0.0140377
-0.0133704
-0.0121316
-0.00996467
-0.00599802
0.000990814
0.0122802
0.0245404
0.0295978
-0.0132982
-0.015107
-0.0141826
-0.0126067
-0.0100624
-0.00575224
0.00142814
0.0125164
0.024382
0.0293347
-0.0154267
-0.0165404
-0.0152725
-0.0132547
-0.0102187
-0.0054739
0.00194806
0.0126911
0.0239631
0.0289372
-0.0173617
-0.0174429
-0.0159611
-0.0137598
-0.0105486
-0.0056251
0.00186709
0.0121063
0.0229218
0.0286
-0.0306196
-0.0287978
-0.0260946
-0.0233263
-0.0199042
-0.0145817
-0.00530917
0.00986587
0.0290665
0.0458059
-0.0278844
-0.0275778
-0.0254671
-0.023281
-0.0205131
-0.0160305
-0.00763933
0.00759207
0.027829
0.0461658
-0.0250852
-0.0257545
-0.0243449
-0.0230817
-0.0213919
-0.0180998
-0.0106913
0.00470228
0.0262596
0.0463863
-0.0232661
-0.0244172
-0.0234689
-0.0228364
-0.0219167
-0.0194549
-0.0126784
0.00283281
0.0252369
0.0464919
-0.0224278
-0.0237514
-0.0230212
-0.0226955
-0.022149
-0.0200919
-0.0136078
0.00196765
0.0247734
0.0465131
-0.0224278
-0.0237514
-0.0230212
-0.0226956
-0.0221491
-0.0200919
-0.0136078
0.00196764
0.0247734
0.0465131
-0.0232661
-0.0244172
-0.0234689
-0.0228364
-0.0219167
-0.0194549
-0.0126784
0.0028328
0.0252369
0.0464918
-0.0250853
-0.0257545
-0.024345
-0.0230817
-0.0213919
-0.0180999
-0.0106913
0.00470225
0.0262596
0.0463863
-0.0278845
-0.0275778
-0.0254671
-0.023281
-0.0205131
-0.0160306
-0.00763936
0.00759204
0.027829
0.0461657
-0.0306196
-0.0287978
-0.0260946
-0.0233263
-0.0199042
-0.0145817
-0.0053092
0.00986584
0.0290665
0.0458058
-0.0534641
-0.0440585
-0.0382789
-0.0339775
-0.0299843
-0.0242901
-0.0137409
0.00719188
0.0375866
0.0775754
-0.0493897
-0.0422946
-0.0377397
-0.0347961
-0.0321971
-0.0283759
-0.0202682
-0.000666418
0.0308518
0.0775965
-0.0455368
-0.0397227
-0.0363602
-0.0350135
-0.0342386
-0.0324741
-0.026387
-0.00714184
0.0263868
0.0781245
-0.0431414
-0.0379016
-0.0352363
-0.0348849
-0.0353366
-0.0349266
-0.030056
-0.0108659
0.0240355
0.0786251
-0.0420756
-0.0370186
-0.0346579
-0.034762
-0.0357852
-0.0360154
-0.0317019
-0.0125007
0.0230693
0.0788067
-0.0420756
-0.0370186
-0.0346579
-0.034762
-0.0357852
-0.0360154
-0.031702
-0.0125007
0.0230693
0.0788067
-0.0431414
-0.0379016
-0.0352363
-0.0348849
-0.0353367
-0.0349266
-0.0300561
-0.0108659
0.0240355
0.078625
-0.0455368
-0.0397227
-0.0363603
-0.0350135
-0.0342386
-0.0324741
-0.026387
-0.00714187
0.0263868
0.0781245
-0.0493897
-0.0422946
-0.0377397
-0.0347961
-0.0321971
-0.0283759
-0.0202682
-0.000666451
0.0308517
0.0775965
-0.0534641
-0.0440585
-0.0382789
-0.0339776
-0.0299844
-0.0242902
-0.013741
0.00719184
0.0375865
0.0775754
-0.0870332
-0.0607272
-0.0509248
-0.0431425
-0.0374803
-0.030705
-0.0181113
0.011129
0.0545051
0.150441
-0.0789943
-0.0572996
-0.0501765
-0.0448435
-0.0411168
-0.036754
-0.0277603
0.000160663
0.0464949
0.160401
-0.0731941
-0.0533481
-0.0480339
-0.0448594
-0.0435607
-0.0416284
-0.0350897
-0.00645653
0.045332
0.167181
-0.0699763
-0.0507399
-0.04636
-0.0444988
-0.044728
-0.0443649
-0.0391668
-0.00981698
0.0448829
0.171204
-0.0686255
-0.049521
-0.0455236
-0.0442407
-0.0451719
-0.0455452
-0.0409525
-0.0112995
0.0446426
0.172837
-0.0686255
-0.049521
-0.0455236
-0.0442408
-0.0451719
-0.0455452
-0.0409525
-0.0112995
0.0446426
0.172837
-0.0699763
-0.0507399
-0.04636
-0.0444988
-0.0447281
-0.044365
-0.0391668
-0.00981701
0.0448828
0.171204
-0.0731941
-0.0533481
-0.0480339
-0.0448595
-0.0435607
-0.0416284
-0.0350897
-0.00645656
0.0453319
0.167181
-0.0789943
-0.0572996
-0.0501765
-0.0448436
-0.0411168
-0.0367541
-0.0277604
0.000160627
0.0464949
0.160401
-0.0870332
-0.0607272
-0.0509248
-0.0431426
-0.0374803
-0.0307051
-0.0181113
0.011129
0.054505
0.150441
-0.198305
-0.0745429
-0.0493055
-0.0389792
-0.0320129
-0.0231999
-0.00575592
0.0374998
0.119961
0.322483
-0.186337
-0.062921
-0.0429258
-0.0367841
-0.0329175
-0.0269056
-0.0121625
0.0331828
0.128461
0.354534
-0.178397
-0.0554693
-0.0379505
-0.0345975
-0.0334154
-0.0296017
-0.0161807
0.0314923
0.135522
0.373365
-0.174124
-0.0514114
-0.0349055
-0.0330905
-0.0335519
-0.0310893
-0.0183386
0.0305219
0.138621
0.382123
-0.172336
-0.049678
-0.0335378
-0.0323693
-0.0335731
-0.03175
-0.0193417
0.0299424
0.139614
0.385305
-0.172336
-0.049678
-0.0335379
-0.0323693
-0.0335732
-0.03175
-0.0193417
0.0299424
0.139614
0.385305
-0.174124
-0.0514114
-0.0349055
-0.0330906
-0.0335519
-0.0310893
-0.0183386
0.0305219
0.138621
0.382123
-0.178397
-0.0554693
-0.0379505
-0.0345975
-0.0334154
-0.0296017
-0.0161807
0.0314923
0.135521
0.373365
-0.186337
-0.062921
-0.0429258
-0.0367842
-0.0329175
-0.0269057
-0.0121625
0.0331828
0.128461
0.354534
-0.198305
-0.0745429
-0.0493055
-0.0389792
-0.032013
-0.0231999
-0.00575594
0.0374997
0.119961
0.322483
)
;

boundaryField
{
    top
    {
        type            zeroGradient;
    }
    others
    {
        type            zeroGradient;
    }
}


// ************************************************************************* //
