/*--------------------------------*- C++ -*----------------------------------*\
  =========                 |
  \\      /  F ield         | OpenFOAM: The Open Source CFD Toolbox
   \\    /   O peration     | Website:  https://openfoam.org
    \\  /    A nd           | Version:  9
     \\/     M anipulation  |
\*---------------------------------------------------------------------------*/
FoamFile
{
    format      ascii;
    class       volScalarField;
    location    "0.91";
    object      p;
}
// * * * * * * * * * * * * * * * * * * * * * * * * * * * * * * * * * * * * * //

dimensions      [0 2 -2 0 0 0 0];

internalField   nonuniform List<scalar> 
1000
(
2.5694e-06
-0.000491634
-0.000188207
0.00086559
0.00274762
0.00533183
0.00815584
0.010454
0.0115216
0.0106625
0.000173792
-0.000737873
-0.000543091
0.000557458
0.00262383
0.00551001
0.00867809
0.0111952
0.0122043
0.0107927
0.00096483
-0.00022612
-7.05693e-05
0.00113191
0.00344943
0.00670773
0.0102589
0.0129202
0.0136776
0.0115192
0.00182228
0.000444215
0.000585674
0.0018901
0.00443736
0.00803646
0.011854
0.0145683
0.0150608
0.0123054
0.00236157
0.000894714
0.00103491
0.00239987
0.00507345
0.00884681
0.0128103
0.0155334
0.0158664
0.0127942
0.00236159
0.000894727
0.00103492
0.00239987
0.00507345
0.00884681
0.0128103
0.0155334
0.0158664
0.0127942
0.00182234
0.000444256
0.000585707
0.00189013
0.00443737
0.00803648
0.011854
0.0145683
0.0150608
0.0123054
0.000964952
-0.000226043
-7.05136e-05
0.00113195
0.00344946
0.00670775
0.010259
0.0129202
0.0136776
0.0115192
0.000174028
-0.000737754
-0.000543011
0.000557511
0.00262387
0.00551004
0.00867811
0.0111952
0.0122044
0.0107927
3.29531e-06
-0.000491427
-0.000188097
0.000865655
0.00274766
0.00533186
0.00815586
0.010454
0.0115217
0.0106626
0.000417747
-1.86247e-05
0.00030317
0.00122375
0.00285138
0.0051404
0.00772516
0.00993455
0.0110234
0.00987624
0.000958524
2.84381e-05
0.000267545
0.00118039
0.0028453
0.00523028
0.00796005
0.0102962
0.011345
0.00954192
0.00219303
0.000847248
0.00101475
0.00192165
0.0036547
0.00618906
0.00915366
0.0115675
0.0124085
0.00985048
0.00336921
0.00170295
0.00180511
0.00270822
0.00451422
0.00721655
0.0103531
0.0127959
0.0134266
0.0103153
0.0040709
0.00223304
0.00229806
0.00319885
0.00504628
0.00784996
0.0110731
0.0135172
0.0140229
0.0106374
0.00407092
0.00223305
0.00229807
0.00319886
0.00504628
0.00784996
0.0110731
0.0135172
0.0140229
0.0106374
0.00336925
0.00170298
0.00180513
0.00270824
0.00451423
0.00721656
0.0103531
0.0127959
0.0134266
0.0103153
0.00219311
0.000847306
0.00101479
0.00192168
0.00365472
0.00618908
0.00915367
0.0115675
0.0124085
0.00985049
0.00095865
2.85231e-05
0.000267608
0.00118044
0.00284533
0.0052303
0.00796007
0.0102962
0.011345
0.00954193
0.000417953
-1.85067e-05
0.000303249
0.0012238
0.00285141
0.00514043
0.00772518
0.00993457
0.0110234
0.00987621
-0.00093362
-0.00150426
-0.00130838
-0.000598324
0.000845177
0.00315285
0.006105
0.00901257
0.0107778
0.00946439
-6.83278e-05
-0.00130162
-0.00119145
-0.000483356
0.00100193
0.00343174
0.00658336
0.00966382
0.0113547
0.00889079
0.00169163
-0.000140469
-0.000164933
0.000443252
0.00189965
0.00443247
0.00780129
0.0110132
0.0125047
0.00899049
0.0033004
0.0010072
0.000850856
0.00135971
0.00279513
0.00543034
0.00893332
0.0121941
0.013483
0.00926619
0.00423827
0.00169838
0.00146418
0.00191442
0.00333879
0.00602125
0.00958742
0.0128526
0.014022
0.0094791
0.00423828
0.00169839
0.00146418
0.00191443
0.0033388
0.00602125
0.00958743
0.0128526
0.014022
0.0094791
0.00330043
0.00100723
0.000850878
0.00135972
0.00279515
0.00543035
0.00893332
0.0121941
0.013483
0.00926619
0.00169169
-0.000140424
-0.000164897
0.00044328
0.00189968
0.00443248
0.0078013
0.0110132
0.0125047
0.00899049
-6.82461e-05
-0.00130155
-0.0011914
-0.00048332
0.00100196
0.00343176
0.00658337
0.00966383
0.0113547
0.00889079
-0.000933513
-0.00150418
-0.00130832
-0.000598281
0.000845208
0.00315287
0.00610501
0.00901258
0.0107778
0.00946438
-0.0044454
-0.00514398
-0.00512921
-0.00470496
-0.00346584
-0.00097276
0.00283664
0.00733657
0.0108081
0.00991035
-0.00325802
-0.00476954
-0.0048427
-0.00440212
-0.00308835
-0.000415359
0.00369835
0.00853159
0.0119325
0.00929497
-0.000967955
-0.00325994
-0.00357784
-0.0033961
-0.00228065
0.000402034
0.00467008
0.00976699
0.0131025
0.00929118
0.00108333
-0.00180703
-0.00236534
-0.00244036
-0.00152337
0.00108441
0.00547136
0.010695
0.0139294
0.00942334
0.002264
-0.00094495
-0.00164491
-0.00186946
-0.00106182
0.00150566
0.00590858
0.0111634
0.0143345
0.00953691
0.00226401
-0.000944944
-0.0016449
-0.00186945
-0.00106181
0.00150566
0.00590858
0.0111634
0.0143345
0.00953691
0.00108336
-0.00180701
-0.00236533
-0.00244035
-0.00152336
0.00108442
0.00547137
0.010695
0.0139294
0.00942335
-0.000967915
-0.00325991
-0.00357781
-0.00339608
-0.00228063
0.000402048
0.00467009
0.009767
0.0131025
0.00929119
-0.00325797
-0.0047695
-0.00484266
-0.00440209
-0.00308833
-0.000415343
0.00369836
0.0085316
0.0119325
0.00929497
-0.00444534
-0.00514393
-0.00512917
-0.00470493
-0.00346581
-0.000972742
0.00283665
0.00733657
0.0108081
0.00991035
-0.0107988
-0.011452
-0.0115381
-0.0114094
-0.0104322
-0.00767319
-0.00250537
0.00475855
0.0115932
0.0127944
-0.00933546
-0.0109243
-0.0111186
-0.0109921
-0.00994884
-0.00706674
-0.0015976
0.00622076
0.0132236
0.0125679
-0.00663466
-0.00916818
-0.009786
-0.0101915
-0.00969035
-0.00713503
-0.00167852
0.00658161
0.0139091
0.0125706
-0.00426011
-0.00750935
-0.0085268
-0.00942692
-0.00939838
-0.00712712
-0.00176819
0.00671042
0.0142294
0.0126194
-0.00291041
-0.0065371
-0.00778422
-0.00895969
-0.00918693
-0.00710743
-0.00180182
0.00674152
0.0143306
0.0126478
-0.0029104
-0.00653709
-0.00778421
-0.00895969
-0.00918693
-0.00710743
-0.00180182
0.00674152
0.0143306
0.0126478
-0.00426009
-0.00750934
-0.00852679
-0.00942691
-0.00939837
-0.00712711
-0.00176819
0.00671043
0.0142294
0.0126194
-0.00663464
-0.00916816
-0.00978598
-0.0101915
-0.00969034
-0.00713502
-0.00167851
0.00658162
0.0139092
0.0125706
-0.00933543
-0.0109243
-0.0111185
-0.0109921
-0.00994882
-0.00706673
-0.00159759
0.00622076
0.0132236
0.0125679
-0.0107988
-0.011452
-0.0115381
-0.0114094
-0.0104322
-0.00767317
-0.00250536
0.00475855
0.0115932
0.0127944
-0.0206086
-0.0206763
-0.0204907
-0.0204983
-0.019761
-0.01676
-0.00984792
0.00150065
0.0143498
0.0210144
-0.0189038
-0.0200499
-0.0200565
-0.0201949
-0.019655
-0.0169318
-0.0102021
0.00166979
0.0151717
0.0213672
-0.0159338
-0.0181684
-0.0188517
-0.0199301
-0.0204551
-0.0186889
-0.0124608
-6.61761e-05
0.0145263
0.0213778
-0.0133872
-0.0164193
-0.0176959
-0.0195684
-0.0209338
-0.0198952
-0.0140339
-0.00138899
0.0138509
0.0212898
-0.0119634
-0.0154081
-0.0170125
-0.0193021
-0.0210824
-0.0203582
-0.0147332
-0.00202884
0.0134772
0.0212116
-0.0119634
-0.0154081
-0.0170125
-0.0193021
-0.0210824
-0.0203582
-0.0147332
-0.00202884
0.0134772
0.0212116
-0.0133872
-0.0164193
-0.0176958
-0.0195684
-0.0209338
-0.0198952
-0.0140339
-0.00138899
0.0138509
0.0212898
-0.0159337
-0.0181684
-0.0188517
-0.0199301
-0.0204551
-0.0186889
-0.0124608
-6.61709e-05
0.0145263
0.0213779
-0.0189038
-0.0200499
-0.0200564
-0.0201949
-0.019655
-0.0169318
-0.0102021
0.00166979
0.0151717
0.0213672
-0.0206085
-0.0206763
-0.0204907
-0.0204983
-0.019761
-0.01676
-0.00984791
0.00150065
0.0143498
0.0210144
-0.034942
-0.0326843
-0.0312297
-0.0308257
-0.0301795
-0.0270302
-0.0184682
-0.00184073
0.0201151
0.0388515
-0.0327969
-0.03191
-0.0308835
-0.030982
-0.031097
-0.0290996
-0.0217985
-0.00535908
0.0177662
0.0389594
-0.029539
-0.0298366
-0.0297864
-0.0313182
-0.0331698
-0.0329888
-0.0270178
-0.0102714
0.0146864
0.0387991
-0.0268776
-0.0279871
-0.028703
-0.0313128
-0.0343713
-0.0353467
-0.0301597
-0.0132354
0.0127657
0.0386594
-0.0254301
-0.0269477
-0.0280681
-0.0312061
-0.0348151
-0.0362917
-0.0314523
-0.0144867
0.0119327
0.0385771
-0.0254301
-0.0269477
-0.0280681
-0.0312061
-0.0348151
-0.0362917
-0.0314523
-0.0144867
0.0119327
0.0385771
-0.0268776
-0.027987
-0.028703
-0.0313128
-0.0343713
-0.0353467
-0.0301597
-0.0132354
0.0127657
0.0386594
-0.0295389
-0.0298366
-0.0297864
-0.0313182
-0.0331698
-0.0329888
-0.0270178
-0.0102714
0.0146864
0.0387992
-0.0327969
-0.03191
-0.0308835
-0.030982
-0.031097
-0.0290996
-0.0217985
-0.00535908
0.0177662
0.0389594
-0.0349419
-0.0326843
-0.0312296
-0.0308257
-0.0301795
-0.0270302
-0.0184682
-0.00184073
0.0201151
0.0388515
-0.0575979
-0.0470369
-0.0422563
-0.0401826
-0.039072
-0.035562
-0.0256925
-0.00314863
0.0302695
0.0731843
-0.0543315
-0.0455666
-0.0416516
-0.0408623
-0.0413403
-0.040077
-0.0331525
-0.0121521
0.0224987
0.0736482
-0.0501685
-0.0426386
-0.0399091
-0.0411148
-0.0439809
-0.0451584
-0.0403203
-0.0192252
0.0177825
0.0750965
-0.0470747
-0.0403031
-0.0384008
-0.0408965
-0.0452515
-0.0478016
-0.0440286
-0.0226238
0.0158027
0.0764595
-0.0454877
-0.0390805
-0.0375978
-0.0406835
-0.0456639
-0.0487529
-0.0454212
-0.0238648
0.0151718
0.0771198
-0.0454877
-0.0390805
-0.0375978
-0.0406835
-0.0456639
-0.0487529
-0.0454212
-0.0238648
0.0151718
0.0771198
-0.0470747
-0.0403031
-0.0384008
-0.0408965
-0.0452515
-0.0478016
-0.0440286
-0.0226238
0.0158027
0.0764595
-0.0501684
-0.0426385
-0.039909
-0.0411147
-0.0439809
-0.0451583
-0.0403203
-0.0192252
0.0177825
0.0750965
-0.0543315
-0.0455665
-0.0416516
-0.0408622
-0.0413403
-0.040077
-0.0331525
-0.0121521
0.0224987
0.0736482
-0.0575979
-0.0470369
-0.0422563
-0.0401825
-0.039072
-0.035562
-0.0256925
-0.00314863
0.0302695
0.0731843
-0.0890996
-0.061259
-0.051998
-0.0463816
-0.0436524
-0.0390765
-0.026388
0.00465122
0.0516407
0.150872
-0.0814281
-0.0572819
-0.0505712
-0.0473809
-0.0470295
-0.0451934
-0.0362265
-0.00613216
0.0452763
0.162524
-0.0750142
-0.0524475
-0.0472988
-0.0466424
-0.0492269
-0.0500454
-0.0431451
-0.0114181
0.0463403
0.171598
-0.0710138
-0.0491437
-0.0448887
-0.0457574
-0.0500411
-0.0523242
-0.0462443
-0.0132235
0.0476546
0.177315
-0.0691656
-0.0475625
-0.0437284
-0.0452705
-0.0502569
-0.0531212
-0.0473291
-0.0137885
0.048378
0.179801
-0.0691656
-0.0475625
-0.0437284
-0.0452705
-0.0502569
-0.0531212
-0.0473291
-0.0137885
0.048378
0.179801
-0.0710138
-0.0491437
-0.0448887
-0.0457574
-0.0500411
-0.0523242
-0.0462443
-0.0132235
0.0476546
0.177315
-0.0750142
-0.0524475
-0.0472988
-0.0466424
-0.0492269
-0.0500454
-0.0431451
-0.0114181
0.0463403
0.171598
-0.0814281
-0.0572819
-0.0505712
-0.0473809
-0.0470295
-0.0451934
-0.0362265
-0.00613216
0.0452763
0.162524
-0.0890996
-0.0612589
-0.051998
-0.0463816
-0.0436524
-0.0390765
-0.026388
0.00465122
0.0516407
0.150872
-0.199332
-0.0739116
-0.0489036
-0.0404491
-0.0361649
-0.0294057
-0.0124861
0.0327627
0.119018
0.324658
-0.18702
-0.0611567
-0.0410724
-0.0370506
-0.03644
-0.0330162
-0.0184914
0.0295955
0.129533
0.359305
-0.178101
-0.0522012
-0.0343893
-0.0334616
-0.0360511
-0.0350092
-0.021466
0.0297193
0.138867
0.380184
-0.172947
-0.0471287
-0.0303414
-0.0311389
-0.0355611
-0.0358314
-0.0226111
0.0302129
0.143499
0.390223
-0.170683
-0.0449466
-0.0285869
-0.030111
-0.0353043
-0.0361325
-0.0230444
0.0304299
0.145266
0.39405
-0.170683
-0.0449466
-0.0285869
-0.030111
-0.0353043
-0.0361325
-0.0230444
0.0304299
0.145266
0.39405
-0.172947
-0.0471287
-0.0303414
-0.0311389
-0.0355611
-0.0358314
-0.0226111
0.0302129
0.143499
0.390223
-0.178101
-0.0522012
-0.0343893
-0.0334616
-0.0360511
-0.0350092
-0.021466
0.0297193
0.138867
0.380184
-0.18702
-0.0611567
-0.0410724
-0.0370506
-0.03644
-0.0330162
-0.0184913
0.0295955
0.129533
0.359305
-0.199332
-0.0739116
-0.0489036
-0.0404491
-0.0361649
-0.0294056
-0.0124861
0.0327627
0.119018
0.324658
)
;

boundaryField
{
    top
    {
        type            zeroGradient;
    }
    others
    {
        type            zeroGradient;
    }
}


// ************************************************************************* //
