/*--------------------------------*- C++ -*----------------------------------*\
  =========                 |
  \\      /  F ield         | OpenFOAM: The Open Source CFD Toolbox
   \\    /   O peration     | Website:  https://openfoam.org
    \\  /    A nd           | Version:  9
     \\/     M anipulation  |
\*---------------------------------------------------------------------------*/
FoamFile
{
    format      ascii;
    class       surfaceScalarField;
    location    "0.71";
    object      phi;
}
// * * * * * * * * * * * * * * * * * * * * * * * * * * * * * * * * * * * * * //

dimensions      [0 3 -1 0 0 0 0];

internalField   nonuniform List<scalar> 
2700
(
-5.84168e-08
-1.0711e-07
1.65602e-07
-3.02295e-07
-1.19911e-07
3.63788e-07
-6.26439e-07
-1.20542e-07
4.44686e-07
-9.46298e-07
-1.41916e-07
4.61774e-07
-1.17282e-06
-1.94593e-07
4.2112e-07
-1.207e-06
-2.72891e-07
3.0707e-07
-9.82053e-07
-3.48997e-07
1.24047e-07
-5.40903e-07
-3.72873e-07
-6.82774e-08
-1.03385e-07
-2.97833e-07
-1.39685e-07
-9.85529e-08
-4.8319e-09
-1.57872e-07
-2.33153e-07
2.83915e-07
-6.86169e-07
-3.10019e-07
7.18405e-07
-1.35588e-06
-3.31374e-07
8.8054e-07
-1.98468e-06
-3.72461e-07
8.59346e-07
-2.39989e-06
-4.55942e-07
6.7656e-07
-2.42508e-06
-5.70206e-07
3.22512e-07
-1.95093e-06
-6.67909e-07
-1.55244e-07
-1.07943e-06
-6.752e-07
-5.69168e-07
-2.34126e-07
-5.34516e-07
-6.08624e-07
-2.16495e-07
-1.16184e-07
-2.36419e-07
-2.54661e-07
2.57927e-07
-9.59231e-07
-3.62597e-07
7.75391e-07
-1.85157e-06
-3.9585e-07
9.56818e-07
-2.66572e-06
-4.38163e-07
8.79851e-07
-3.17493e-06
-5.14938e-07
5.68203e-07
-3.15879e-06
-6.15582e-07
2.92381e-08
-2.4878e-06
-6.87911e-07
-6.5099e-07
-1.32414e-06
-6.7525e-07
-1.16361e-06
-2.50098e-07
-5.33052e-07
-1.07551e-06
-2.34627e-07
-2.31966e-07
-2.90238e-07
-1.61518e-07
1.97095e-07
-1.14193e-06
-2.3681e-07
7.25902e-07
-2.17792e-06
-2.6068e-07
9.00823e-07
-3.10552e-06
-2.86506e-07
7.75944e-07
-3.66279e-06
-3.30167e-07
3.72503e-07
-3.59182e-06
-3.84595e-07
-3.01962e-07
-2.77444e-06
-4.21443e-07
-1.08384e-06
-1.41811e-06
-4.07622e-07
-1.62396e-06
-2.2193e-07
-3.21696e-07
-1.40754e-06
-1.47274e-07
-3.09283e-07
-3.18128e-07
1.70349e-12
1.56608e-07
-1.23462e-06
1.55303e-12
6.79681e-07
-2.34163e-06
1.22314e-12
8.46328e-07
-3.32289e-06
8.42051e-13
6.94754e-07
-3.89784e-06
6.57045e-13
2.44778e-07
-3.79439e-06
4.95185e-13
-4.88041e-07
-2.89736e-06
3.80666e-13
-1.31848e-06
-1.44552e-06
3.1006e-13
-1.85947e-06
-1.97815e-07
2.7925e-13
-1.5694e-06
2.23952e-13
-3.4509e-07
-3.18128e-07
1.61522e-07
1.56608e-07
-1.23462e-06
2.36813e-07
6.79681e-07
-2.34163e-06
2.60683e-07
8.46328e-07
-3.32289e-06
2.86508e-07
6.94754e-07
-3.89784e-06
3.30168e-07
2.44778e-07
-3.79439e-06
3.84596e-07
-4.88041e-07
-2.89736e-06
4.21444e-07
-1.31848e-06
-1.44552e-06
4.07623e-07
-1.85947e-06
-1.97815e-07
3.21696e-07
-1.5694e-06
1.47275e-07
-3.4509e-07
-2.90239e-07
2.54667e-07
1.97094e-07
-1.14193e-06
3.62602e-07
7.25901e-07
-2.17792e-06
3.95853e-07
9.00822e-07
-3.10552e-06
4.38165e-07
7.75944e-07
-3.66279e-06
5.14939e-07
3.72503e-07
-3.59182e-06
6.15583e-07
-3.01962e-07
-2.77444e-06
6.87911e-07
-1.08384e-06
-1.41811e-06
6.7525e-07
-1.62396e-06
-2.2193e-07
5.33053e-07
-1.40754e-06
2.34627e-07
-3.09283e-07
-2.36421e-07
2.33163e-07
2.57924e-07
-9.59234e-07
3.10025e-07
7.75389e-07
-1.85158e-06
3.31377e-07
9.56817e-07
-2.66572e-06
3.72463e-07
8.7985e-07
-3.17493e-06
4.55943e-07
5.68203e-07
-3.15879e-06
5.70207e-07
2.92379e-08
-2.4878e-06
6.6791e-07
-6.5099e-07
-1.32414e-06
6.75201e-07
-1.16361e-06
-2.50098e-07
5.34517e-07
-1.07551e-06
2.16495e-07
-2.31966e-07
-1.5788e-07
1.07135e-07
2.83908e-07
-6.86174e-07
1.19918e-07
7.18402e-07
-1.35588e-06
1.20545e-07
8.80538e-07
-1.98468e-06
1.41917e-07
8.59346e-07
-2.39989e-06
1.94594e-07
6.7656e-07
-2.42509e-06
2.72891e-07
3.22512e-07
-1.95093e-06
3.48998e-07
-1.55244e-07
-1.07943e-06
3.72873e-07
-5.69168e-07
-2.34126e-07
2.97833e-07
-6.08624e-07
9.85531e-08
-1.16185e-07
-5.84415e-08
1.65576e-07
-3.02305e-07
3.63781e-07
-6.26444e-07
4.44684e-07
-9.463e-07
4.61773e-07
-1.17283e-06
4.21119e-07
-1.207e-06
3.07069e-07
-9.82054e-07
1.24047e-07
-5.40903e-07
-6.82776e-08
-1.03385e-07
-1.39686e-07
-4.83203e-09
-2.18526e-07
-2.8043e-07
6.64557e-07
-7.19043e-07
-3.7477e-07
1.23908e-06
-1.32309e-06
-3.90297e-07
1.43904e-06
-1.89936e-06
-3.98452e-07
1.43649e-06
-2.30251e-06
-4.29332e-07
1.2536e-06
-2.37092e-06
-4.85275e-07
8.60754e-07
-1.98865e-06
-5.38656e-07
2.80436e-07
-1.19696e-06
-5.31033e-07
-3.28937e-07
-3.31326e-07
-3.94475e-07
-6.10846e-07
-8.56135e-08
-2.50544e-07
-5.99125e-07
-5.12481e-07
1.11509e-06
-1.81701e-06
-7.44306e-07
2.30582e-06
-3.2155e-06
-7.89893e-07
2.67863e-06
-4.46575e-06
-8.05085e-07
2.51623e-06
-5.25536e-06
-8.49915e-07
1.88675e-06
-5.28658e-06
-9.25205e-07
7.93659e-07
-4.37699e-06
-9.88339e-07
-6.15152e-07
-2.65887e-06
-9.45669e-07
-1.87265e-06
-8.20433e-07
-7.14275e-07
-2.12726e-06
-2.33708e-07
-7.88523e-07
-8.9134e-07
-5.21889e-07
1.15867e-06
-2.63008e-06
-7.91297e-07
2.56112e-06
-4.56449e-06
-8.48026e-07
2.94936e-06
-6.22167e-06
-8.61997e-07
2.59394e-06
-7.18509e-06
-8.97834e-07
1.57954e-06
-7.10868e-06
-9.5692e-07
-1.54608e-08
-5.77972e-06
-9.88549e-07
-1.97974e-06
-3.44455e-06
-9.27184e-07
-3.51726e-06
-1.03547e-06
-7.08221e-07
-3.49065e-06
-2.72649e-07
-1.22849e-06
-1.08525e-06
-3.20922e-07
1.08138e-06
-3.17019e-06
-4.96747e-07
2.51629e-06
-5.44468e-06
-5.34649e-07
2.86193e-06
-7.33594e-06
-5.41848e-07
2.34706e-06
-8.36919e-06
-5.58784e-07
1.06671e-06
-8.16628e-06
-5.86513e-07
-8.75283e-07
-6.53957e-06
-5.94587e-07
-3.10451e-06
-3.81858e-06
-5.51438e-07
-4.7207e-06
-1.10024e-06
-4.24504e-07
-4.40959e-06
-1.75974e-07
-1.5062e-06
-1.18171e-06
1.54576e-12
1.0174e-06
-3.43967e-06
1.38642e-12
2.44089e-06
-5.87928e-06
1.08206e-12
2.75128e-06
-7.87571e-06
7.73581e-13
2.14934e-06
-8.92857e-06
6.21727e-13
7.38854e-07
-8.64632e-06
4.91328e-13
-1.35681e-06
-6.86537e-06
3.89173e-13
-3.69401e-06
-3.96122e-06
3.2654e-13
-5.31506e-06
-1.1112e-06
2.78147e-13
-4.84392e-06
2.09244e-13
-1.63226e-06
-1.18171e-06
3.20926e-07
1.0174e-06
-3.43967e-06
4.9675e-07
2.44089e-06
-5.87928e-06
5.34651e-07
2.75128e-06
-7.87571e-06
5.41849e-07
2.14934e-06
-8.92857e-06
5.58785e-07
7.38854e-07
-8.64632e-06
5.86514e-07
-1.35681e-06
-6.86537e-06
5.94588e-07
-3.69401e-06
-3.96122e-06
5.51438e-07
-5.31506e-06
-1.1112e-06
4.24505e-07
-4.84392e-06
1.75974e-07
-1.63226e-06
-1.08526e-06
5.21893e-07
1.08138e-06
-3.17019e-06
7.913e-07
2.51629e-06
-5.44468e-06
8.48028e-07
2.86193e-06
-7.33594e-06
8.61998e-07
2.34706e-06
-8.3692e-06
8.97835e-07
1.06671e-06
-8.16628e-06
9.56921e-07
-8.75283e-07
-6.53957e-06
9.8855e-07
-3.10451e-06
-3.81858e-06
9.27185e-07
-4.7207e-06
-1.10024e-06
7.08221e-07
-4.40959e-06
2.72649e-07
-1.5062e-06
-8.91341e-07
5.12487e-07
1.15867e-06
-2.63008e-06
7.4431e-07
2.56112e-06
-4.56449e-06
7.89895e-07
2.94936e-06
-6.22167e-06
8.05087e-07
2.59394e-06
-7.18509e-06
8.49916e-07
1.57954e-06
-7.10868e-06
9.25206e-07
-1.54612e-08
-5.77972e-06
9.8834e-07
-1.97974e-06
-3.44455e-06
9.45669e-07
-3.51726e-06
-1.03547e-06
7.14276e-07
-3.49065e-06
2.33709e-07
-1.22849e-06
-5.99128e-07
2.80437e-07
1.11509e-06
-1.81701e-06
3.74774e-07
2.30582e-06
-3.21551e-06
3.90299e-07
2.67863e-06
-4.46575e-06
3.98454e-07
2.51623e-06
-5.25536e-06
4.29333e-07
1.88675e-06
-5.28658e-06
4.85276e-07
7.93658e-07
-4.37699e-06
5.38656e-07
-6.15152e-07
-2.65887e-06
5.31033e-07
-1.87265e-06
-8.20433e-07
3.94476e-07
-2.12726e-06
8.56138e-08
-7.88523e-07
-2.18533e-07
6.64547e-07
-7.19048e-07
1.23907e-06
-1.3231e-06
1.43903e-06
-1.89936e-06
1.43649e-06
-2.30251e-06
1.2536e-06
-2.37092e-06
8.60753e-07
-1.98865e-06
2.80435e-07
-1.19696e-06
-3.28937e-07
-3.31326e-07
-6.10846e-07
-2.50544e-07
-3.3137e-07
-4.28134e-07
1.42406e-06
-1.00223e-06
-5.75159e-07
2.4851e-06
-1.78606e-06
-5.77179e-07
2.80004e-06
-2.55031e-06
-5.3516e-07
2.73591e-06
-3.14128e-06
-5.02812e-07
2.34739e-06
-3.35477e-06
-5.03966e-07
1.57821e-06
-2.98739e-06
-5.26987e-07
4.40043e-07
-1.97729e-06
-5.22939e-07
-8.16098e-07
-6.72514e-07
-3.94178e-07
-1.52145e-06
-4.01887e-08
-8.82869e-07
-9.53977e-07
-7.45135e-07
2.38607e-06
-2.69266e-06
-1.07376e-06
4.54311e-06
-4.61489e-06
-1.08401e-06
5.1077e-06
-6.33515e-06
-9.94126e-07
4.69545e-06
-7.49916e-06
-9.08205e-07
3.45616e-06
-7.73202e-06
-8.64769e-07
1.38732e-06
-6.71131e-06
-8.50313e-07
-1.31254e-06
-4.41526e-06
-8.08359e-07
-3.88328e-06
-1.5837e-06
-6.24187e-07
-4.72881e-06
-1.55255e-07
-2.25716e-06
-1.44622e-06
-7.36726e-07
2.59648e-06
-3.9883e-06
-1.10107e-06
5.13051e-06
-6.69435e-06
-1.11377e-06
5.68517e-06
-8.98275e-06
-1.00997e-06
4.89819e-06
-1.03814e-05
-8.98962e-07
2.96892e-06
-1.04613e-05
-8.18309e-07
1.79853e-08
-8.89398e-06
-7.61339e-07
-3.63601e-06
-5.7464e-06
-7.02903e-07
-6.7703e-06
-2.02544e-06
-5.57834e-07
-7.27796e-06
-1.90593e-07
-3.21859e-06
-1.77641e-06
-4.45362e-07
2.56643e-06
-4.8522e-06
-6.77506e-07
5.16852e-06
-8.04546e-06
-6.85104e-07
5.62652e-06
-1.06382e-05
-6.15603e-07
4.54547e-06
-1.20994e-05
-5.37011e-07
2.16588e-06
-1.19932e-05
-4.71925e-07
-1.32787e-06
-1.00388e-05
-4.23317e-07
-5.39687e-06
-6.38441e-06
-3.84746e-07
-8.69326e-06
-2.19883e-06
-3.12722e-07
-8.84029e-06
-1.23571e-07
-3.77205e-06
-1.94035e-06
1.19839e-12
2.51239e-06
-5.28023e-06
1.11211e-12
5.10327e-06
-8.7039e-06
8.4973e-13
5.48985e-06
-1.14235e-05
6.11288e-13
4.25332e-06
-1.28839e-05
5.02925e-13
1.66222e-06
-1.26616e-05
4.06251e-13
-2.05101e-06
-1.05116e-05
3.2403e-13
-6.26734e-06
-6.62909e-06
2.55844e-13
-9.58229e-06
-2.25339e-06
2.01297e-13
-9.53234e-06
1.5576e-13
-4.00922e-06
-1.94035e-06
4.45365e-07
2.51239e-06
-5.28023e-06
6.77508e-07
5.10326e-06
-8.7039e-06
6.85106e-07
5.48985e-06
-1.14235e-05
6.15604e-07
4.25332e-06
-1.28839e-05
5.37012e-07
1.66222e-06
-1.26616e-05
4.71926e-07
-2.05101e-06
-1.05116e-05
4.23318e-07
-6.26734e-06
-6.62909e-06
3.84746e-07
-9.58229e-06
-2.25339e-06
3.12723e-07
-9.53234e-06
1.23572e-07
-4.00922e-06
-1.77641e-06
7.36728e-07
2.56643e-06
-4.8522e-06
1.10107e-06
5.16852e-06
-8.04546e-06
1.11377e-06
5.62652e-06
-1.06382e-05
1.00997e-06
4.54547e-06
-1.20994e-05
8.98963e-07
2.16588e-06
-1.19932e-05
8.18309e-07
-1.32787e-06
-1.00388e-05
7.6134e-07
-5.39687e-06
-6.38441e-06
7.02903e-07
-8.69326e-06
-2.19883e-06
5.57834e-07
-8.84029e-06
1.90594e-07
-3.77205e-06
-1.44622e-06
7.45138e-07
2.59648e-06
-3.9883e-06
1.07377e-06
5.13051e-06
-6.69435e-06
1.08401e-06
5.68516e-06
-8.98275e-06
9.94127e-07
4.89819e-06
-1.03814e-05
9.08206e-07
2.96892e-06
-1.04613e-05
8.6477e-07
1.7985e-08
-8.89398e-06
8.50313e-07
-3.63601e-06
-5.7464e-06
8.08359e-07
-6.7703e-06
-2.02544e-06
6.24187e-07
-7.27796e-06
1.55255e-07
-3.21859e-06
-9.53978e-07
4.28136e-07
2.38607e-06
-2.69266e-06
5.75161e-07
4.54311e-06
-4.61489e-06
5.7718e-07
5.10769e-06
-6.33515e-06
5.35161e-07
4.69545e-06
-7.49916e-06
5.02813e-07
3.45616e-06
-7.73202e-06
5.03966e-07
1.38732e-06
-6.71131e-06
5.26988e-07
-1.31254e-06
-4.41526e-06
5.22939e-07
-3.88328e-06
-1.5837e-06
3.94179e-07
-4.72881e-06
4.01889e-08
-2.25716e-06
-3.31372e-07
1.42406e-06
-1.00223e-06
2.48509e-06
-1.78606e-06
2.80004e-06
-2.55031e-06
2.7359e-06
-3.14128e-06
2.34739e-06
-3.35477e-06
1.57821e-06
-2.98739e-06
4.40043e-07
-1.97729e-06
-8.16098e-07
-6.72514e-07
-1.52145e-06
-8.8287e-07
-4.14293e-07
-5.57365e-07
2.39572e-06
-1.19899e-06
-7.27117e-07
3.99691e-06
-2.10881e-06
-6.75253e-07
4.38512e-06
-3.05162e-06
-5.31862e-07
4.21058e-06
-3.90446e-06
-3.81741e-07
3.58198e-06
-4.43033e-06
-2.8344e-07
2.38751e-06
-4.28739e-06
-2.62553e-07
5.59655e-07
-3.17768e-06
-3.12388e-07
-1.61342e-06
-1.30862e-06
-2.97233e-07
-3.09327e-06
3.36593e-10
-2.19183e-06
-1.23157e-06
-9.45422e-07
4.0057e-06
-3.36123e-06
-1.31373e-06
7.25938e-06
-5.68124e-06
-1.21003e-06
7.96248e-06
-7.82956e-06
-9.11027e-07
7.22294e-06
-9.48237e-06
-5.78514e-07
5.30574e-06
-1.02087e-05
-3.2252e-07
2.15275e-06
-9.46636e-06
-2.05655e-07
-2.1118e-06
-6.84263e-06
-2.55639e-07
-6.56376e-06
-2.84218e-06
-3.07534e-07
-8.71895e-06
-4.94421e-08
-5.04956e-06
-1.88519e-06
-9.17518e-07
4.45377e-06
-5.04131e-06
-1.31541e-06
8.2883e-06
-8.32781e-06
-1.19992e-06
8.96157e-06
-1.11542e-05
-8.66296e-07
7.6798e-06
-1.30888e-05
-4.84639e-07
4.80972e-06
-1.36465e-05
-1.67531e-07
4.20642e-07
-1.23181e-05
-1.05421e-08
-5.15952e-06
-8.72186e-06
-5.76422e-08
-1.05645e-05
-3.56934e-06
-1.72303e-07
-1.25657e-05
-6.67937e-08
-6.77059e-06
-2.32243e-06
-5.47983e-07
4.51932e-06
-6.15116e-06
-7.97198e-07
8.47903e-06
-1.0014e-05
-7.21246e-07
9.01072e-06
-1.31611e-05
-5.04598e-07
7.3308e-06
-1.51163e-05
-2.54538e-07
3.89106e-06
-1.5445e-05
-4.30917e-08
-1.12366e-06
-1.36894e-05
6.10207e-08
-7.224e-06
-9.5603e-06
2.92031e-08
-1.29092e-05
-3.86295e-06
-6.20056e-08
-1.46479e-05
-4.2232e-08
-7.65956e-06
-2.53734e-06
8.60061e-13
4.50174e-06
-6.69257e-06
7.87393e-13
8.4613e-06
-1.08161e-05
5.69052e-13
8.89214e-06
-1.4078e-05
4.2056e-13
7.01059e-06
-1.59941e-05
3.71978e-13
3.32382e-06
-1.6172e-05
3.41276e-13
-1.91624e-06
-1.4212e-05
2.86902e-13
-8.16635e-06
-9.86468e-06
2.42006e-13
-1.39004e-05
-3.9636e-06
1.84395e-13
-1.54954e-05
1.48547e-13
-8.01505e-06
-2.53734e-06
5.47985e-07
4.50174e-06
-6.69257e-06
7.972e-07
8.4613e-06
-1.08161e-05
7.21247e-07
8.89214e-06
-1.4078e-05
5.04599e-07
7.01059e-06
-1.59941e-05
2.54538e-07
3.32382e-06
-1.6172e-05
4.30924e-08
-1.91624e-06
-1.4212e-05
-6.10201e-08
-8.16635e-06
-9.86468e-06
-2.92026e-08
-1.39004e-05
-3.9636e-06
6.2006e-08
-1.54954e-05
4.22323e-08
-8.01505e-06
-2.32243e-06
9.1752e-07
4.51932e-06
-6.15116e-06
1.31541e-06
8.47903e-06
-1.0014e-05
1.19993e-06
9.01072e-06
-1.31611e-05
8.66297e-07
7.3308e-06
-1.51163e-05
4.8464e-07
3.89106e-06
-1.5445e-05
1.67532e-07
-1.12366e-06
-1.36894e-05
1.05426e-08
-7.224e-06
-9.5603e-06
5.76426e-08
-1.29092e-05
-3.86295e-06
1.72303e-07
-1.46479e-05
6.6794e-08
-7.65956e-06
-1.88519e-06
9.45424e-07
4.45377e-06
-5.04131e-06
1.31373e-06
8.2883e-06
-8.32781e-06
1.21003e-06
8.96157e-06
-1.11542e-05
9.11028e-07
7.6798e-06
-1.30888e-05
5.78515e-07
4.80971e-06
-1.36465e-05
3.22521e-07
4.20642e-07
-1.23181e-05
2.05656e-07
-5.15952e-06
-8.72186e-06
2.5564e-07
-1.05645e-05
-3.56934e-06
3.07534e-07
-1.25657e-05
4.94424e-08
-6.77059e-06
-1.23157e-06
5.57366e-07
4.0057e-06
-3.36123e-06
7.27118e-07
7.25937e-06
-5.68124e-06
6.75254e-07
7.96248e-06
-7.82956e-06
5.31862e-07
7.22294e-06
-9.48237e-06
3.81742e-07
5.30574e-06
-1.02087e-05
2.83441e-07
2.15275e-06
-9.46636e-06
2.62554e-07
-2.1118e-06
-6.84263e-06
3.12388e-07
-6.56376e-06
-2.84218e-06
2.97233e-07
-8.71895e-06
-3.36582e-10
-5.04956e-06
-4.14294e-07
2.39572e-06
-1.19899e-06
3.99691e-06
-2.10881e-06
4.38511e-06
-3.05162e-06
4.21058e-06
-3.90446e-06
3.58198e-06
-4.43033e-06
2.38751e-06
-4.28739e-06
5.59655e-07
-3.17768e-06
-1.61342e-06
-1.30862e-06
-3.09327e-06
-2.19183e-06
-5.05867e-07
-6.5724e-07
3.55882e-06
-1.34714e-06
-8.14073e-07
5.65225e-06
-2.30204e-06
-6.565e-07
5.99652e-06
-3.37734e-06
-3.43425e-07
5.62929e-06
-4.54248e-06
1.89968e-08
4.72813e-06
-5.56347e-06
2.97834e-07
3.11066e-06
-5.93189e-06
3.99598e-07
5.28476e-07
-4.9649e-06
2.46291e-07
-2.8267e-06
-2.46054e-06
4.09242e-09
-5.60172e-06
9.84787e-09
-4.66221e-06
-1.4682e-06
-1.09156e-06
5.90821e-06
-3.83568e-06
-1.43537e-06
1.02482e-05
-6.36552e-06
-1.12646e-06
1.09623e-05
-8.82019e-06
-4.96409e-07
9.8306e-06
-1.09931e-05
2.18131e-07
7.27948e-06
-1.2467e-05
7.99782e-07
3.12472e-06
-1.24619e-05
1.0404e-06
-2.75774e-06
-9.99052e-06
7.83749e-07
-9.57255e-06
-4.84955e-06
2.44965e-07
-1.41008e-05
1.27187e-08
-9.90199e-06
-2.21955e-06
-1.04221e-06
6.62397e-06
-5.74317e-06
-1.40892e-06
1.17855e-05
-9.32371e-06
-1.07609e-06
1.24917e-05
-1.2475e-05
-3.97836e-07
1.07326e-05
-1.49026e-05
3.64836e-07
7.09062e-06
-1.61718e-05
9.77862e-07
1.51177e-06
-1.55809e-05
1.22013e-06
-5.93017e-06
-1.21805e-05
9.41283e-07
-1.41225e-05
-5.8404e-06
3.59143e-07
-1.902e-05
1.93868e-08
-1.26177e-05
-2.71074e-06
-6.15611e-07
6.80347e-06
-6.96966e-06
-8.42325e-07
1.21714e-05
-1.11362e-05
-6.3001e-07
1.27312e-05
-1.45508e-05
-2.00705e-07
1.05483e-05
-1.69088e-05
2.77717e-07
6.33611e-06
-1.7851e-05
6.57135e-07
1.39305e-07
-1.68421e-05
7.89038e-07
-7.80175e-06
-1.30087e-05
6.03144e-07
-1.64045e-05
-6.21095e-06
2.40269e-07
-2.13268e-05
1.55034e-08
-1.38666e-05
-2.94664e-06
5.94304e-13
6.83277e-06
-7.55147e-06
5.32273e-13
1.22238e-05
-1.1965e-05
3.96022e-13
1.26757e-05
-1.54435e-05
3.37638e-13
1.02883e-05
-1.76956e-05
3.43284e-13
5.85368e-06
-1.84461e-05
3.29466e-13
-5.08649e-07
-1.72487e-05
2.97635e-13
-8.57468e-06
-1.32741e-05
2.68655e-13
-1.72718e-05
-6.339e-06
2.03093e-13
-2.21903e-05
1.77761e-13
-1.43385e-05
-2.94664e-06
6.15612e-07
6.83277e-06
-7.55147e-06
8.42326e-07
1.22238e-05
-1.1965e-05
6.30011e-07
1.26757e-05
-1.54435e-05
2.00706e-07
1.02883e-05
-1.76956e-05
-2.77716e-07
5.85368e-06
-1.84461e-05
-6.57134e-07
-5.08649e-07
-1.72487e-05
-7.89037e-07
-8.57468e-06
-1.32741e-05
-6.03144e-07
-1.72718e-05
-6.339e-06
-2.40268e-07
-2.21903e-05
-1.55031e-08
-1.43385e-05
-2.71074e-06
1.04221e-06
6.80347e-06
-6.96966e-06
1.40892e-06
1.21714e-05
-1.11362e-05
1.07609e-06
1.27312e-05
-1.45508e-05
3.97837e-07
1.05483e-05
-1.69088e-05
-3.64835e-07
6.33611e-06
-1.7851e-05
-9.77861e-07
1.39305e-07
-1.68421e-05
-1.22013e-06
-7.80175e-06
-1.30087e-05
-9.41282e-07
-1.64045e-05
-6.21095e-06
-3.59143e-07
-2.13268e-05
-1.93865e-08
-1.38666e-05
-2.21955e-06
1.09156e-06
6.62397e-06
-5.74317e-06
1.43537e-06
1.17855e-05
-9.32371e-06
1.12646e-06
1.24917e-05
-1.2475e-05
4.9641e-07
1.07326e-05
-1.49026e-05
-2.1813e-07
7.09062e-06
-1.61718e-05
-7.99782e-07
1.51177e-06
-1.55809e-05
-1.0404e-06
-5.93017e-06
-1.21805e-05
-7.83748e-07
-1.41225e-05
-5.8404e-06
-2.44965e-07
-1.902e-05
-1.27184e-08
-1.26177e-05
-1.4682e-06
6.5724e-07
5.90821e-06
-3.83568e-06
8.14073e-07
1.02482e-05
-6.36552e-06
6.565e-07
1.09623e-05
-8.82019e-06
3.43426e-07
9.8306e-06
-1.09931e-05
-1.89965e-08
7.27948e-06
-1.2467e-05
-2.97834e-07
3.12472e-06
-1.24619e-05
-3.99598e-07
-2.75774e-06
-9.99052e-06
-2.4629e-07
-9.57255e-06
-4.84955e-06
-4.09237e-09
-1.41008e-05
-9.84789e-09
-9.90199e-06
-5.05867e-07
3.55882e-06
-1.34714e-06
5.65225e-06
-2.30204e-06
5.99652e-06
-3.37734e-06
5.62929e-06
-4.54248e-06
4.72813e-06
-5.56347e-06
3.11066e-06
-5.93189e-06
5.28476e-07
-4.9649e-06
-2.8267e-06
-2.46054e-06
-5.60172e-06
-4.66221e-06
-6.96676e-07
-7.30562e-07
4.98606e-06
-1.51389e-06
-8.31186e-07
7.30065e-06
-2.34683e-06
-5.10637e-07
7.34009e-06
-3.39901e-06
5.18413e-08
6.62964e-06
-4.80008e-06
6.97147e-07
5.43205e-06
-6.41702e-06
1.26512e-06
3.46248e-06
-7.61783e-06
1.52758e-06
2.01701e-07
-7.24207e-06
1.22825e-06
-4.43071e-06
-4.28638e-06
4.93698e-07
-9.05112e-06
-6.44499e-08
-8.88414e-06
-1.74924e-06
-1.1817e-06
8.10859e-06
-4.13447e-06
-1.43688e-06
1.32391e-05
-6.50649e-06
-8.41519e-07
1.36652e-05
-8.88366e-06
2.15626e-07
1.2044e-05
-1.13048e-05
1.41051e-06
8.9873e-06
-1.34845e-05
2.40542e-06
4.16411e-06
-1.45678e-05
2.79995e-06
-2.94684e-06
-1.30031e-05
2.23844e-06
-1.21474e-05
-7.41999e-06
9.49395e-07
-2.01396e-05
-5.94322e-08
-1.7327e-05
-2.50493e-06
-1.10692e-06
9.05412e-06
-6.04059e-06
-1.38524e-06
1.52695e-05
-9.3984e-06
-7.70509e-07
1.57785e-05
-1.23403e-05
3.157e-07
1.35744e-05
-1.48282e-05
1.50963e-06
9.47944e-06
-1.6628e-05
2.44549e-06
3.2715e-06
-1.70745e-05
2.72611e-06
-5.40986e-06
-1.47793e-05
2.09837e-06
-1.62775e-05
-8.36023e-06
8.69473e-07
-2.53592e-05
-3.08066e-08
-2.10065e-05
-2.97506e-06
-6.45701e-07
9.31731e-06
-7.20769e-06
-8.17623e-07
1.58364e-05
-1.10637e-05
-4.36522e-07
1.62532e-05
-1.41281e-05
2.31092e-07
1.36973e-05
-1.63731e-05
9.47029e-07
9.14372e-06
-1.77222e-05
1.47654e-06
2.45736e-06
-1.77433e-05
1.59824e-06
-6.65275e-06
-1.52114e-05
1.19e-06
-1.80281e-05
-8.65162e-06
4.78814e-07
-2.7496e-05
-9.58828e-09
-2.25395e-05
-3.19214e-06
4.13452e-13
9.37921e-06
-7.73803e-06
3.65731e-13
1.59521e-05
-1.17823e-05
2.72705e-13
1.62834e-05
-1.4828e-05
2.60965e-13
1.35651e-05
-1.68864e-05
2.67493e-13
8.85907e-06
-1.79855e-05
2.88279e-13
2.06701e-06
-1.78518e-05
2.99604e-13
-7.11012e-06
-1.53012e-05
2.69639e-13
-1.86324e-05
-8.75748e-06
2.2524e-13
-2.82551e-05
2.16508e-13
-2.31056e-05
-3.19214e-06
6.45702e-07
9.37921e-06
-7.73803e-06
8.17623e-07
1.59521e-05
-1.17823e-05
4.36523e-07
1.62834e-05
-1.4828e-05
-2.31092e-07
1.35651e-05
-1.68864e-05
-9.47029e-07
8.85907e-06
-1.79855e-05
-1.47654e-06
2.06701e-06
-1.78518e-05
-1.59824e-06
-7.11012e-06
-1.53012e-05
-1.19e-06
-1.86324e-05
-8.75748e-06
-4.78814e-07
-2.82551e-05
9.58863e-09
-2.31056e-05
-2.97506e-06
1.10692e-06
9.31731e-06
-7.20769e-06
1.38524e-06
1.58364e-05
-1.10637e-05
7.70509e-07
1.62532e-05
-1.41281e-05
-3.157e-07
1.36973e-05
-1.63731e-05
-1.50963e-06
9.14372e-06
-1.77222e-05
-2.44549e-06
2.45736e-06
-1.77433e-05
-2.72611e-06
-6.65275e-06
-1.52114e-05
-2.09837e-06
-1.80281e-05
-8.65162e-06
-8.69473e-07
-2.7496e-05
3.08069e-08
-2.25395e-05
-2.50493e-06
1.1817e-06
9.05412e-06
-6.04059e-06
1.43688e-06
1.52695e-05
-9.3984e-06
8.41519e-07
1.57785e-05
-1.23403e-05
-2.15625e-07
1.35744e-05
-1.48282e-05
-1.41051e-06
9.47944e-06
-1.6628e-05
-2.40542e-06
3.2715e-06
-1.70745e-05
-2.79995e-06
-5.40986e-06
-1.47793e-05
-2.23844e-06
-1.62775e-05
-8.36023e-06
-9.49395e-07
-2.53592e-05
5.94324e-08
-2.10065e-05
-1.74924e-06
7.30562e-07
8.10859e-06
-4.13447e-06
8.31186e-07
1.32391e-05
-6.50649e-06
5.10637e-07
1.36652e-05
-8.88366e-06
-5.18409e-08
1.2044e-05
-1.13048e-05
-6.97147e-07
8.9873e-06
-1.34845e-05
-1.26512e-06
4.16411e-06
-1.45678e-05
-1.52758e-06
-2.94684e-06
-1.30031e-05
-1.22825e-06
-1.21474e-05
-7.41999e-06
-4.93698e-07
-2.01396e-05
6.44499e-08
-1.7327e-05
-6.96676e-07
4.98606e-06
-1.51389e-06
7.30065e-06
-2.34683e-06
7.34009e-06
-3.39902e-06
6.62964e-06
-4.80009e-06
5.43205e-06
-6.41702e-06
3.46248e-06
-7.61783e-06
2.01701e-07
-7.24207e-06
-4.43071e-06
-4.28638e-06
-9.05112e-06
-8.88414e-06
-1.22851e-06
-8.2966e-07
7.04423e-06
-1.83619e-06
-8.4055e-07
8.74889e-06
-2.19085e-06
-3.16971e-07
8.01172e-06
-2.8282e-06
5.26615e-07
6.74038e-06
-4.13299e-06
1.50784e-06
5.22899e-06
-6.17839e-06
2.44138e-06
3.0665e-06
-8.42323e-06
2.97642e-06
-5.29875e-07
-9.22954e-06
2.58807e-06
-6.21247e-06
-6.50641e-06
1.20214e-06
-1.29764e-05
-2.94855e-07
-1.50957e-05
-2.3785e-06
-1.27156e-06
1.0929e-05
-4.38595e-06
-1.40935e-06
1.58153e-05
-5.89818e-06
-5.05326e-07
1.53658e-05
-7.36748e-06
9.63398e-07
1.30765e-05
-9.19907e-06
2.60948e-06
9.71725e-06
-1.14426e-05
4.01686e-06
4.83214e-06
-1.35049e-05
4.61517e-06
-2.52329e-06
-1.36502e-05
3.76e-06
-1.31741e-05
-9.28571e-06
1.57468e-06
-2.48766e-05
-4.19579e-07
-2.6488e-05
-3.02163e-06
-1.15283e-06
1.1957e-05
-6.02619e-06
-1.32463e-06
1.81893e-05
-8.28833e-06
-4.38177e-07
1.79735e-05
-1.0008e-05
9.90789e-07
1.52667e-05
-1.15263e-05
2.52708e-06
1.10801e-05
-1.30156e-05
3.72029e-06
5.0574e-06
-1.42229e-05
4.05208e-06
-3.63946e-06
-1.38666e-05
3.08931e-06
-1.59632e-05
-9.46517e-06
1.1591e-06
-2.9345e-05
-3.41464e-07
-3.05498e-05
-3.38643e-06
-6.59705e-07
1.22106e-05
-6.95114e-06
-7.69406e-07
1.88459e-05
-9.54636e-06
-2.36753e-07
1.8647e-05
-1.12072e-05
6.14199e-07
1.57347e-05
-1.22969e-05
1.49953e-06
1.1261e-05
-1.3181e-05
2.13926e-06
4.92248e-06
-1.39226e-05
2.24526e-06
-4.10436e-06
-1.35265e-05
1.63208e-06
-1.6967e-05
-9.42208e-06
5.66899e-07
-3.10082e-05
-1.74492e-07
-3.21285e-05
-3.54433e-06
3.55753e-13
1.22638e-05
-7.34419e-06
2.95376e-13
1.89825e-05
-1.00433e-05
2.30328e-13
1.87458e-05
-1.1607e-05
2.2405e-13
1.5743e-05
-1.24437e-05
2.36914e-13
1.11953e-05
-1.30519e-05
2.89075e-13
4.81449e-06
-1.36586e-05
3.00251e-13
-4.25823e-06
-1.33547e-05
2.8062e-13
-1.73042e-05
-9.4341e-06
2.50623e-13
-3.16088e-05
2.32289e-13
-3.27142e-05
-3.54433e-06
6.59706e-07
1.22638e-05
-7.34419e-06
7.69407e-07
1.89825e-05
-1.00433e-05
2.36753e-07
1.87458e-05
-1.1607e-05
-6.14198e-07
1.5743e-05
-1.24437e-05
-1.49953e-06
1.11953e-05
-1.30519e-05
-2.13926e-06
4.81449e-06
-1.36586e-05
-2.24526e-06
-4.25823e-06
-1.33547e-05
-1.63208e-06
-1.73042e-05
-9.4341e-06
-5.66899e-07
-3.16088e-05
1.74493e-07
-3.27142e-05
-3.38643e-06
1.15283e-06
1.22106e-05
-6.95114e-06
1.32463e-06
1.88459e-05
-9.54636e-06
4.38178e-07
1.8647e-05
-1.12072e-05
-9.90789e-07
1.57347e-05
-1.22969e-05
-2.52708e-06
1.1261e-05
-1.3181e-05
-3.72029e-06
4.92247e-06
-1.39226e-05
-4.05208e-06
-4.10436e-06
-1.35265e-05
-3.08931e-06
-1.6967e-05
-9.42208e-06
-1.1591e-06
-3.10082e-05
3.41464e-07
-3.21285e-05
-3.02163e-06
1.27156e-06
1.1957e-05
-6.0262e-06
1.40935e-06
1.81893e-05
-8.28833e-06
5.05326e-07
1.79735e-05
-1.0008e-05
-9.63397e-07
1.52667e-05
-1.15263e-05
-2.60948e-06
1.10801e-05
-1.30156e-05
-4.01686e-06
5.0574e-06
-1.42229e-05
-4.61517e-06
-3.63946e-06
-1.38666e-05
-3.76e-06
-1.59632e-05
-9.46517e-06
-1.57468e-06
-2.9345e-05
4.19579e-07
-3.05498e-05
-2.3785e-06
8.2966e-07
1.0929e-05
-4.38595e-06
8.40551e-07
1.58153e-05
-5.89818e-06
3.16971e-07
1.53658e-05
-7.36748e-06
-5.26614e-07
1.30765e-05
-9.19907e-06
-1.50784e-06
9.71725e-06
-1.14426e-05
-2.44138e-06
4.83214e-06
-1.35049e-05
-2.97642e-06
-2.52329e-06
-1.36502e-05
-2.58807e-06
-1.31741e-05
-9.28571e-06
-1.20214e-06
-2.48766e-05
2.94855e-07
-2.6488e-05
-1.22851e-06
7.04423e-06
-1.83619e-06
8.74889e-06
-2.19085e-06
8.01172e-06
-2.8282e-06
6.74038e-06
-4.13299e-06
5.22899e-06
-6.17839e-06
3.0665e-06
-8.42323e-06
-5.29875e-07
-9.22954e-06
-6.21247e-06
-6.50641e-06
-1.29764e-05
-1.50957e-05
-2.47421e-06
-1.0844e-06
1.06028e-05
-2.23477e-06
-1.07606e-06
9.5855e-06
-1.28796e-06
-3.90189e-07
7.4551e-06
-7.34277e-07
6.74381e-07
5.51232e-06
-1.22015e-06
1.90576e-06
3.80911e-06
-3.07703e-06
3.14134e-06
1.78203e-06
-6.14537e-06
4.02796e-06
-1.4895e-06
-8.68046e-06
3.68612e-06
-7.3635e-06
-7.66969e-06
1.62537e-06
-1.56125e-05
-1.01108e-06
-2.17543e-05
-4.02278e-06
-1.52986e-06
1.53972e-05
-4.67701e-06
-1.65902e-06
1.70525e-05
-3.88117e-06
-5.92311e-07
1.4772e-05
-2.92016e-06
1.0644e-06
1.17255e-05
-2.65387e-06
2.92245e-06
8.43427e-06
-3.57105e-06
4.58855e-06
4.30211e-06
-5.73259e-06
5.50008e-06
-1.83387e-06
-8.04637e-06
4.60669e-06
-1.17808e-05
-7.44166e-06
1.6304e-06
-2.54864e-05
-1.37708e-06
-3.35636e-05
-4.63456e-06
-1.3052e-06
1.63669e-05
-5.99468e-06
-1.47175e-06
1.93622e-05
-5.53421e-06
-4.88168e-07
1.74089e-05
-4.35897e-06
1.0199e-06
1.41359e-05
-3.29342e-06
2.63015e-06
1.03069e-05
-2.97995e-06
3.94379e-06
5.38869e-06
-3.87e-06
4.46777e-06
-1.71709e-06
-5.76829e-06
3.46573e-06
-1.29239e-05
-6.00292e-06
1.02907e-06
-2.85091e-05
-1.01563e-06
-3.69142e-05
-4.89748e-06
-7.20144e-07
1.6523e-05
-6.61863e-06
-8.25765e-07
1.9921e-05
-6.29826e-06
-2.54609e-07
1.80931e-05
-4.92992e-06
6.09714e-07
1.47766e-05
-3.35633e-06
1.50057e-06
1.0817e-05
-2.37328e-06
2.17814e-06
5.70508e-06
-2.71671e-06
2.377e-06
-1.67017e-06
-4.65471e-06
1.75305e-06
-1.33163e-05
-5.49709e-06
4.68582e-07
-2.96053e-05
-4.85913e-07
-3.81553e-05
-4.99053e-06
3.16901e-13
1.65342e-05
-6.84379e-06
2.66061e-13
2.001e-05
-6.54868e-06
2.25411e-13
1.81961e-05
-5.06015e-06
2.011e-13
1.48642e-05
-3.25394e-06
2.08684e-13
1.08897e-05
-2.02376e-06
2.71197e-13
5.76245e-06
-2.23577e-06
3.09221e-13
-1.66923e-06
-4.30987e-06
2.92817e-13
-1.3477e-05
-5.42172e-06
2.49346e-13
-3.00284e-05
2.09898e-13
-3.86218e-05
-4.99053e-06
7.20145e-07
1.65342e-05
-6.84379e-06
8.25765e-07
2.001e-05
-6.54868e-06
2.5461e-07
1.81961e-05
-5.06015e-06
-6.09713e-07
1.48642e-05
-3.25394e-06
-1.50057e-06
1.08897e-05
-2.02376e-06
-2.17814e-06
5.76245e-06
-2.23577e-06
-2.377e-06
-1.66923e-06
-4.30987e-06
-1.75305e-06
-1.3477e-05
-5.42172e-06
-4.68581e-07
-3.00284e-05
4.85913e-07
-3.86218e-05
-4.89748e-06
1.3052e-06
1.6523e-05
-6.61863e-06
1.47175e-06
1.9921e-05
-6.29826e-06
4.88169e-07
1.80931e-05
-4.92992e-06
-1.0199e-06
1.47766e-05
-3.35633e-06
-2.63015e-06
1.0817e-05
-2.37328e-06
-3.94379e-06
5.70508e-06
-2.71671e-06
-4.46777e-06
-1.67017e-06
-4.65471e-06
-3.46573e-06
-1.33163e-05
-5.49709e-06
-1.02907e-06
-2.96053e-05
1.01563e-06
-3.81553e-05
-4.63456e-06
1.52986e-06
1.63669e-05
-5.99468e-06
1.65902e-06
1.93622e-05
-5.53421e-06
5.92311e-07
1.74089e-05
-4.35897e-06
-1.0644e-06
1.41359e-05
-3.29342e-06
-2.92245e-06
1.03069e-05
-2.97995e-06
-4.58855e-06
5.38869e-06
-3.87e-06
-5.50008e-06
-1.71709e-06
-5.76829e-06
-4.60669e-06
-1.29239e-05
-6.00292e-06
-1.6304e-06
-2.85091e-05
1.37708e-06
-3.69142e-05
-4.02278e-06
1.0844e-06
1.53972e-05
-4.67701e-06
1.07606e-06
1.70525e-05
-3.88117e-06
3.90189e-07
1.4772e-05
-2.92016e-06
-6.74381e-07
1.17255e-05
-2.65387e-06
-1.90576e-06
8.43427e-06
-3.57105e-06
-3.14134e-06
4.30211e-06
-5.73259e-06
-4.02796e-06
-1.83387e-06
-8.04637e-06
-3.68612e-06
-1.17808e-05
-7.44166e-06
-1.62537e-06
-2.54864e-05
1.01108e-06
-3.35636e-05
-2.47421e-06
1.06028e-05
-2.23477e-06
9.5855e-06
-1.28796e-06
7.4551e-06
-7.34278e-07
5.51232e-06
-1.22015e-06
3.80911e-06
-3.07703e-06
1.78203e-06
-6.14537e-06
-1.4895e-06
-8.68046e-06
-7.3635e-06
-7.66969e-06
-1.56125e-05
-2.17543e-05
-2.67074e-06
-1.85788e-06
1.51315e-05
5.13509e-07
-1.98692e-06
8.38817e-06
4.55039e-06
-1.19805e-06
4.61627e-06
7.41266e-06
-1.43682e-07
2.79374e-06
8.6004e-06
1.09694e-06
1.52442e-06
7.6723e-06
2.38255e-06
3.27576e-07
4.36103e-06
3.55151e-06
-1.72974e-06
-6.13623e-07
3.45284e-06
-5.84168e-06
-3.46954e-06
9.06242e-07
-1.36629e-05
-2.71956e-06
-2.25043e-05
-4.77009e-06
-2.23212e-06
2.05416e-05
-7.73757e-07
-2.67579e-06
1.3745e-05
5.14778e-06
-1.76684e-06
9.4193e-06
1.02956e-05
-2.95042e-07
6.72904e-06
1.39726e-05
1.37329e-06
4.48093e-06
1.54933e-05
3.00966e-06
2.15423e-06
1.40485e-05
4.27369e-06
-1.11121e-06
9.32203e-06
3.84176e-06
-7.44331e-06
3.09479e-06
6.97031e-07
-1.90499e-05
-2.76061e-06
-3.04278e-05
-5.53315e-06
-1.70902e-06
2.1377e-05
-1.73237e-06
-2.16911e-06
1.50547e-05
4.3458e-06
-1.44057e-06
1.10045e-05
1.01736e-05
-2.36658e-07
8.24976e-06
1.4988e-05
1.1088e-06
5.75699e-06
1.79902e-05
2.35448e-06
3.04158e-06
1.79312e-05
3.1992e-06
-5.83559e-07
1.37163e-05
2.75126e-06
-7.61857e-06
5.7169e-06
4.35939e-07
-2.02486e-05
-1.72888e-06
-3.2229e-05
-5.72809e-06
-8.87719e-07
2.14298e-05
-2.06777e-06
-1.15364e-06
1.52453e-05
4.0109e-06
-7.54898e-07
1.13288e-05
1.00493e-05
-1.08081e-07
8.60961e-06
1.52784e-05
6.04057e-07
6.09255e-06
1.88098e-05
1.23817e-06
3.28999e-06
1.91522e-05
1.62855e-06
-4.41944e-07
1.49558e-05
1.35755e-06
-7.72609e-06