/*--------------------------------*- C++ -*----------------------------------*\
  =========                 |
  \\      /  F ield         | OpenFOAM: The Open Source CFD Toolbox
   \\    /   O peration     | Website:  https://openfoam.org
    \\  /    A nd           | Version:  9
     \\/     M anipulation  |
\*---------------------------------------------------------------------------*/
FoamFile
{
    format      ascii;
    class       surfaceScalarField;
    location    "0.68";
    object      phi;
}
// * * * * * * * * * * * * * * * * * * * * * * * * * * * * * * * * * * * * * //

dimensions      [0 3 -1 0 0 0 0];

internalField   nonuniform List<scalar> 
2700
(
-5.90739e-08
-1.06148e-07
1.65115e-07
-3.03237e-07
-1.18376e-07
3.62538e-07
-6.27042e-07
-1.18942e-07
4.42747e-07
-9.46087e-07
-1.40303e-07
4.59349e-07
-1.17183e-06
-1.92824e-07
4.18567e-07
-1.20575e-06
-2.70862e-07
3.04786e-07
-9.81217e-07
-3.46821e-07
1.22286e-07
-5.40779e-07
-3.70881e-07
-6.95571e-08
-1.03603e-07
-2.96415e-07
-1.40761e-07
-9.80438e-08
-5.55954e-09
-1.58462e-07
-2.30621e-07
2.82935e-07
-6.86137e-07
-3.06128e-07
7.15428e-07
-1.35421e-06
-3.2729e-07
8.76417e-07
-1.98109e-06
-3.6842e-07
8.54998e-07
-2.39508e-06
-4.5177e-07
6.72935e-07
-2.42047e-06
-5.65781e-07
3.2031e-07
-1.94792e-06
-6.63445e-07
-1.55917e-07
-1.0785e-06
-6.71234e-07
-5.69071e-07
-2.34371e-07
-5.31652e-07
-6.08893e-07
-2.15299e-07
-1.17116e-07
-2.36274e-07
-2.51609e-07
2.57262e-07
-9.56903e-07
-3.57895e-07
7.72397e-07
-1.84609e-06
-3.90902e-07
9.52794e-07
-2.65747e-06
-4.33302e-07
8.76271e-07
-3.16563e-06
-5.10036e-07
5.66418e-07
-3.15072e-06
-6.10543e-07
2.98589e-08
-2.48293e-06
-6.83048e-07
-6.48193e-07
-1.32277e-06
-6.71043e-07
-1.16034e-06
-2.50554e-07
-5.30009e-07
-1.07386e-06
-2.33289e-07
-2.32563e-07
-2.89222e-07
-1.59472e-07
1.97085e-07
-1.13716e-06
-2.33647e-07
7.23688e-07
-2.16864e-06
-2.5735e-07
8.97934e-07
-3.09294e-06
-2.83249e-07
7.74244e-07
-3.64956e-06
-3.26935e-07
3.73521e-07
-3.58109e-06
-3.81365e-07
-2.97644e-07
-2.76836e-06
-4.18375e-07
-1.07741e-06
-1.41669e-06
-4.05004e-07
-1.6177e-06
-2.22707e-07
-3.19799e-07
-1.4042e-06
-1.46422e-07
-3.09574e-07
-3.16539e-07
-2.42888e-12
1.57069e-07
-1.22831e-06
-2.10119e-12
6.78124e-07
-2.33003e-06
-1.65868e-12
8.44378e-07
-3.30775e-06
-1.15565e-12
6.94473e-07
-3.88241e-06
-8.73734e-13
2.47719e-07
-3.78225e-06
-5.99127e-13
-4.81523e-07
-2.89073e-06
-4.04105e-13
-1.3099e-06
-1.44418e-06
-3.02433e-13
-1.85155e-06
-1.98812e-07
-2.53575e-13
-1.56516e-06
-2.26553e-13
-3.45233e-07
-3.16538e-07
1.59467e-07
1.57069e-07
-1.22831e-06
2.33643e-07
6.78124e-07
-2.33003e-06
2.57347e-07
8.44378e-07
-3.30775e-06
2.83247e-07
6.94473e-07
-3.88241e-06
3.26933e-07
2.47719e-07
-3.78225e-06
3.81364e-07
-4.81523e-07
-2.89073e-06
4.18374e-07
-1.3099e-06
-1.44418e-06
4.05004e-07
-1.85155e-06
-1.98812e-07
3.19798e-07
-1.56516e-06
1.46421e-07
-3.45233e-07
-2.8922e-07
2.51601e-07
1.97086e-07
-1.13715e-06
3.57889e-07
7.23689e-07
-2.16864e-06
3.90898e-07
8.97935e-07
-3.09294e-06
4.33299e-07
7.74245e-07
-3.64956e-06
5.10034e-07
3.73521e-07
-3.58109e-06
6.10542e-07
-2.97644e-07
-2.76836e-06
6.83047e-07
-1.07741e-06
-1.41669e-06
6.71042e-07
-1.6177e-06
-2.22707e-07
5.30008e-07
-1.4042e-06
2.33289e-07
-3.09574e-07
-2.3627e-07
2.30605e-07
2.57266e-07
-9.569e-07
3.0612e-07
7.72399e-07
-1.84608e-06
3.27285e-07
9.52796e-07
-2.65747e-06
3.68418e-07
8.76271e-07
-3.16562e-06
4.51769e-07
5.66418e-07
-3.15072e-06
5.6578e-07
2.98592e-08
-2.48293e-06
6.63444e-07
-6.48193e-07
-1.32277e-06
6.71233e-07
-1.16034e-06
-2.50554e-07
5.31651e-07
-1.07386e-06
2.15298e-07
-2.32563e-07
-1.58451e-07
1.0611e-07
2.82946e-07
-6.86129e-07
1.18366e-07
7.15433e-07
-1.3542e-06
1.18939e-07
8.76419e-07
-1.98108e-06
1.40301e-07
8.54999e-07
-2.39507e-06
1.92823e-07
6.72935e-07
-2.42046e-06
2.70861e-07
3.2031e-07
-1.94792e-06
3.46821e-07
-1.55917e-07
-1.0785e-06
3.70881e-07
-5.69071e-07
-2.34371e-07
2.96415e-07
-6.08893e-07
9.80436e-08
-1.17116e-07
-5.90403e-08
1.65151e-07
-3.03223e-07
3.62548e-07
-6.27035e-07
4.42751e-07
-9.46084e-07
4.5935e-07
-1.17183e-06
4.18567e-07
-1.20575e-06
3.04786e-07
-9.81217e-07
1.22286e-07
-5.40779e-07
-6.9557e-08
-1.03603e-07
-1.40761e-07
-5.5596e-09
-2.18959e-07
-2.77934e-07
6.62008e-07
-7.196e-07
-3.70684e-07
1.23386e-06
-1.32292e-06
-3.86271e-07
1.43234e-06
-1.89776e-06
-3.95098e-07
1.42929e-06
-2.29959e-06
-4.26544e-07
1.24694e-06
-2.36759e-06
-4.82723e-07
8.55503e-07
-1.98607e-06
-5.36266e-07
2.77032e-07
-1.1958e-06
-5.28865e-07
-3.30961e-07
-3.31342e-07
-3.92868e-07
-6.12351e-07
-8.50352e-08
-2.51866e-07
-5.98398e-07
-5.06968e-07
1.11037e-06
-1.81361e-06
-7.35561e-07
2.29552e-06
-3.20835e-06
-7.81363e-07
2.66625e-06
-4.45508e-06
-7.9807e-07
2.5047e-06
-5.24291e-06
-8.44257e-07
1.87848e-06
-5.27507e-06
-9.20224e-07
7.89969e-07
-4.36869e-06
-9.83975e-07
-6.14587e-07
-2.65484e-06
-9.41857e-07
-1.86994e-06
-8.197e-07
-7.11413e-07
-2.12548e-06
-2.32553e-07
-7.89299e-07
-8.87946e-07
-5.15584e-07
1.15383e-06
-2.6198e-06
-7.81383e-07
2.55008e-06
-4.54704e-06
-8.38439e-07
2.93711e-06
-6.19939e-06
-8.54214e-07
2.58477e-06
-7.16186e-06
-8.91791e-07
1.57642e-06
-7.08938e-06
-9.52117e-07
-1.07328e-08
-5.76657e-06
-9.84296e-07
-1.97068e-06
-3.43839e-06
-9.2351e-07
-3.50687e-06
-1.03433e-06
-7.05405e-07
-3.48393e-06
-2.71406e-07
-1.22804e-06
-1.07903e-06
-3.1678e-07
1.07731e-06
-3.15297e-06
-4.90263e-07
2.50651e-06
-5.41739e-06
-5.28418e-07
2.85233e-06
-7.30331e-06
-5.36841e-07
2.3428e-06
-8.33744e-06
-5.54973e-07
1.07083e-06
-8.14083e-06
-5.83507e-07
-8.62866e-07
-6.52318e-06
-5.92075e-07
-3.08728e-06
-3.81124e-06
-5.49295e-07
-4.70385e-06
-1.09902e-06
-4.2283e-07
-4.39899e-06
-1.75193e-07
-1.50481e-06
-1.1737e-06
-2.10091e-12
1.01399e-06
-3.41815e-06
-1.87128e-12
2.43232e-06
-5.84608e-06
-1.5289e-12
2.74389e-06
-7.83713e-06
-1.10526e-12
2.14869e-06
-8.89206e-06
-8.07434e-13
7.47675e-07
-8.61781e-06
-5.56066e-13
-1.33928e-06
-6.84748e-06
-3.81603e-13
-3.6723e-06
-3.95343e-06
-2.75814e-13
-5.2949e-06
-1.11001e-06
-2.27548e-13
-4.83141e-06
-2.14418e-13
-1.63044e-06
-1.1737e-06
3.16775e-07
1.01399e-06
-3.41815e-06
4.90259e-07
2.43232e-06
-5.84608e-06
5.28415e-07
2.74389e-06
-7.83713e-06
5.36839e-07
2.14869e-06
-8.89206e-06
5.54972e-07
7.47676e-07
-8.61781e-06
5.83505e-07
-1.33928e-06
-6.84748e-06
5.92074e-07
-3.6723e-06
-3.95343e-06
5.49294e-07
-5.2949e-06
-1.11001e-06
4.22829e-07
-4.83141e-06
1.75193e-07
-1.63044e-06
-1.07903e-06
5.15578e-07
1.07731e-06
-3.15296e-06
7.81379e-07
2.50651e-06
-5.41738e-06
8.38436e-07
2.85233e-06
-7.30331e-06
8.54212e-07
2.3428e-06
-8.33744e-06
8.91789e-07
1.07083e-06
-8.14083e-06
9.52116e-07
-8.62865e-07
-6.52318e-06
9.84295e-07
-3.08728e-06
-3.81124e-06
9.23509e-07
-4.70385e-06
-1.09902e-06
7.05405e-07
-4.39899e-06
2.71406e-07
-1.50481e-06
-8.87944e-07
5.06959e-07
1.15383e-06
-2.6198e-06
7.35555e-07
2.55008e-06
-4.54704e-06
7.8136e-07
2.93711e-06
-6.19939e-06
7.98068e-07
2.58477e-06
-7.16186e-06
8.44256e-07
1.57642e-06
-7.08938e-06
9.20224e-07
-1.07325e-08
-5.76657e-06
9.83975e-07
-1.97068e-06
-3.43839e-06
9.41856e-07
-3.50687e-06
-1.03433e-06
7.11413e-07
-3.48393e-06
2.32552e-07
-1.22804e-06
-5.98392e-07
2.77924e-07
1.11037e-06
-1.8136e-06
3.70678e-07
2.29552e-06
-3.20835e-06
3.86268e-07
2.66626e-06
-4.45508e-06
3.95096e-07
2.5047e-06
-5.24291e-06
4.26543e-07
1.87848e-06
-5.27507e-06
4.82723e-07
7.8997e-07
-4.36869e-06
5.36266e-07
-6.14587e-07
-2.65484e-06
5.28865e-07
-1.86994e-06
-8.197e-07
3.92867e-07
-2.12548e-06
8.50349e-08
-7.89299e-07
-2.18948e-07
6.62023e-07
-7.19592e-07
1.23387e-06
-1.32292e-06
1.43234e-06
-1.89776e-06
1.42929e-06
-2.29959e-06
1.24694e-06
-2.36759e-06
8.55504e-07
-1.98607e-06
2.77032e-07
-1.1958e-06
-3.3096e-07
-3.31342e-07
-6.12351e-07
-2.51866e-07
-3.31763e-07
-4.24777e-07
1.41855e-06
-1.00292e-06
-5.69883e-07
2.4749e-06
-1.78605e-06
-5.72707e-07
2.78817e-06
-2.54861e-06
-5.32605e-07
2.72446e-06
-3.13774e-06
-5.01977e-07
2.33805e-06
-3.35019e-06
-5.04026e-07
1.57198e-06
-2.98316e-06
-5.27061e-07
4.3706e-07
-1.97464e-06
-5.22673e-07
-8.16806e-07
-6.71784e-07
-3.93734e-07
-1.52147e-06
-4.00956e-08
-8.83555e-07
-9.52332e-07
-7.37965e-07
2.37589e-06
-2.68739e-06
-1.06297e-06
4.52366e-06
-4.60525e-06
-1.07507e-06
5.08648e-06
-6.32171e-06
-9.89275e-07
4.67783e-06
-7.4838e-06
-9.07041e-07
3.44563e-06
-7.71717e-06
-8.65847e-07
1.38517e-06
-6.69957e-06
-8.51495e-07
-1.30775e-06
-4.40834e-06
-8.08861e-07
-3.87498e-06
-1.58157e-06
-6.24006e-07
-4.72198e-06
-1.55139e-07
-2.25583e-06
-1.44037e-06
-7.28671e-07
2.5849e-06
-3.97298e-06
-1.08913e-06
5.10885e-06
-6.67066e-06
-1.10411e-06
5.66383e-06
-8.95466e-06
-1.00502e-06
4.88451e-06
-1.03539e-05
-8.98117e-07
2.96675e-06
-1.0437e-05
-8.19489e-07
2.59868e-08
-8.87648e-06
-7.63273e-07
-3.61941e-06
-5.73653e-06
-7.04121e-07
-6.75156e-06
-2.02241e-06
-5.58068e-07
-7.26399e-06
-1.90517e-07
-3.21507e-06
-1.76616e-06
-4.40119e-07
2.55492e-06
-4.82682e-06
-6.69812e-07
5.14784e-06
-8.00856e-06
-6.78981e-07
5.60895e-06
-1.05974e-05
-6.12608e-07
4.53926e-06
-1.20619e-05
-5.36751e-07
2.1739e-06
-1.19632e-05
-4.73186e-07
-1.30783e-06
-1.00181e-05
-4.24915e-07
-5.37072e-06
-6.37305e-06
-3.8578e-07
-8.66727e-06
-2.19536e-06
-3.1302e-07
-8.82172e-06
-1.23544e-07
-3.76714e-06
-1.92736e-06
-1.60993e-12
2.50123e-06
-5.24871e-06
-1.53253e-12
5.08386e-06
-8.65924e-06
-1.29707e-12
5.47544e-06
-1.13756e-05
-9.57524e-13
4.25245e-06
-1.28414e-05
-7.06839e-13
1.67676e-06
-1.2629e-05
-4.75448e-13
-2.02493e-06
-1.04896e-05
-3.21521e-13
-6.2366e-06
-6.61715e-06
-2.32984e-13
-9.55311e-06
-2.24976e-06
-1.94006e-13
-9.51182e-06
-1.78025e-13
-4.00374e-06
-1.92735e-06
4.40116e-07
2.50123e-06
-5.24871e-06
6.69809e-07
5.08386e-06
-8.65924e-06
6.78978e-07
5.47544e-06
-1.13756e-05
6.12606e-07
4.25245e-06
-1.28414e-05
5.36749e-07
1.67676e-06
-1.2629e-05
4.73185e-07
-2.02493e-06
-1.04896e-05
4.24914e-07
-6.2366e-06
-6.61715e-06
3.8578e-07
-9.55311e-06
-2.24976e-06
3.13019e-07
-9.51182e-06
1.23543e-07
-4.00374e-06
-1.76616e-06
7.28667e-07
2.55492e-06
-4.82681e-06
1.08913e-06
5.14784e-06
-8.00856e-06
1.10411e-06
5.60895e-06
-1.05974e-05
1.00501e-06
4.53926e-06
-1.20619e-05
8.98116e-07
2.1739e-06
-1.19632e-05
8.19489e-07
-1.30783e-06
-1.00181e-05
7.63272e-07
-5.37072e-06
-6.37305e-06
7.04121e-07
-8.66727e-06
-2.19536e-06
5.58067e-07
-8.82172e-06
1.90516e-07
-3.76714e-06
-1.44037e-06
7.37961e-07
2.5849e-06
-3.97298e-06
1.06297e-06
5.10885e-06
-6.67066e-06
1.07507e-06
5.66383e-06
-8.95466e-06
9.89274e-07
4.88451e-06
-1.03539e-05
9.0704e-07
2.96675e-06
-1.0437e-05
8.65846e-07
2.59873e-08
-8.87648e-06
8.51494e-07
-3.61941e-06
-5.73653e-06
8.08861e-07
-6.75156e-06
-2.02241e-06
6.24006e-07
-7.26399e-06
1.55139e-07
-3.21507e-06
-9.5233e-07
4.24773e-07
2.37589e-06
-2.68739e-06
5.69881e-07
4.52367e-06
-4.60525e-06
5.72705e-07
5.08648e-06
-6.32171e-06
5.32605e-07
4.67783e-06
-7.48379e-06
5.01977e-07
3.44563e-06
-7.71717e-06
5.04026e-07
1.38517e-06
-6.69957e-06
5.27061e-07
-1.30775e-06
-4.40834e-06
5.22673e-07
-3.87498e-06
-1.58157e-06
3.93734e-07
-4.72198e-06
4.00954e-08
-2.25583e-06
-3.31759e-07
1.41856e-06
-1.00292e-06
2.47491e-06
-1.78604e-06
2.78818e-06
-2.54861e-06
2.72446e-06
-3.13774e-06
2.33805e-06
-3.35019e-06
1.57198e-06
-2.98316e-06
4.3706e-07
-1.97464e-06
-8.16806e-07
-6.71784e-07
-1.52147e-06
-8.83555e-07
-4.15216e-07
-5.53914e-07
2.38768e-06
-1.20103e-06
-7.22136e-07
3.98285e-06
-2.11063e-06
-6.72228e-07
4.37e-06
-3.0516e-06
-5.32141e-07
4.19756e-06
-3.90195e-06
-3.84616e-07
3.57302e-06
-4.42581e-06
-2.87301e-07
2.38315e-06
-4.28226e-06
-2.66041e-07
5.59548e-07
-3.17379e-06
-3.14612e-07
-1.61067e-06
-1.30709e-06
-2.98182e-07
-3.08999e-06
-8.12085e-15
-2.19064e-06
-1.23058e-06
-9.38076e-07
3.99063e-06
-3.3578e-06
-1.30366e-06
7.2324e-06
-5.67454e-06
-1.20425e-06
7.93525e-06
-7.81955e-06
-9.12164e-07
7.20285e-06
-9.46984e-06
-5.85045e-07
5.29635e-06
-1.01954e-05
-3.31016e-07
2.15444e-06
-9.45437e-06
-2.13376e-07
-2.10145e-06
-6.8343e-06
-2.60712e-07
-6.54895e-06
-2.8389e-06
-3.0995e-07
-8.70561e-06
-5.02401e-08
-5.04448e-06
-1.87961e-06
-9.09266e-07
4.4357e-06
-5.02734e-06
-1.30441e-06
8.25734e-06
-8.30738e-06
-1.194e-06
8.93362e-06
-1.11311e-05
-8.68241e-07
7.66429e-06
-1.30663e-05
-4.92653e-07
4.80954e-06
-1.36271e-05
-1.77831e-07
4.33636e-07
-1.23022e-05
-1.98374e-08
-5.13787e-06
-8.7112e-06
-6.34188e-08
-1.05398e-05
-3.56504e-06
-1.75076e-07
-1.2545e-05
-6.76617e-08
-6.76269e-06
-2.31193e-06
-5.42618e-07
4.5002e-06
-6.12657e-06
-7.90175e-07
8.44823e-06
-9.98083e-06
-7.17652e-07
8.98687e-06
-1.31273e-05
-5.0618e-07
7.32368e-06
-1.50874e-05
-2.6003e-07
3.90136e-06
-1.54222e-05
-5.00489e-08
-1.10082e-06
-1.36725e-05
5.52667e-08
-7.19556e-06
-9.54891e-06
2.55266e-08
-1.28798e-05
-3.85815e-06
-6.37772e-08
-1.46238e-05
-4.27797e-08
-7.65018e-06
-2.52376e-06
-1.16037e-12
4.48237e-06
-6.66154e-06
-1.14273e-12
8.43146e-06
-1.07756e-05
-9.97849e-13
8.87183e-06
-1.40387e-05
-7.52967e-13
7.00938e-06
-1.59624e-05
-5.49827e-13
3.34047e-06
-1.61486e-05
-3.95617e-13
-1.88884e-06
-1.41948e-05
-2.71392e-13
-8.13506e-06
-9.85313e-06
-2.10071e-13
-1.38693e-05
-3.95859e-06
-1.74697e-13
-1.54701e-05
-1.59576e-13
-8.00511e-06
-2.52376e-06
5.42615e-07
4.48237e-06
-6.66154e-06
7.90172e-07
8.43146e-06
-1.07756e-05
7.1765e-07
8.87183e-06
-1.40387e-05
5.06178e-07
7.00938e-06
-1.59624e-05
2.60029e-07
3.34047e-06
-1.61486e-05
5.0048e-08
-1.88884e-06
-1.41948e-05
-5.52673e-08
-8.13506e-06
-9.85313e-06
-2.5527e-08
-1.38693e-05
-3.95859e-06
6.37768e-08
-1.54701e-05
4.27794e-08
-8.00511e-06
-2.31193e-06
9.09264e-07
4.50021e-06
-6.12657e-06
1.30441e-06
8.44823e-06
-9.98083e-06
1.194e-06
8.98687e-06
-1.31273e-05
8.68239e-07
7.32368e-06
-1.50874e-05
4.92652e-07
3.90136e-06
-1.54222e-05
1.77831e-07
-1.10082e-06
-1.36725e-05
1.98369e-08
-7.19556e-06
-9.54891e-06
6.34184e-08
-1.28798e-05
-3.85815e-06
1.75075e-07
-1.46238e-05
6.76614e-08
-7.65018e-06
-1.87961e-06
9.38073e-07
4.4357e-06
-5.02734e-06
1.30366e-06
8.25734e-06
-8.30738e-06
1.20425e-06
8.93362e-06
-1.11311e-05
9.12163e-07
7.66429e-06
-1.30663e-05
5.85044e-07
4.80954e-06
-1.36271e-05
3.31015e-07
4.33636e-07
-1.23022e-05
2.13375e-07
-5.13787e-06
-8.7112e-06
2.60712e-07
-1.05398e-05
-3.56504e-06
3.0995e-07
-1.2545e-05
5.02398e-08
-6.76269e-06
-1.23058e-06
5.53912e-07
3.99063e-06
-3.35779e-06
7.22135e-07
7.23241e-06
-5.67454e-06
6.72227e-07
7.93525e-06
-7.81954e-06
5.3214e-07
7.20286e-06
-9.46984e-06
3.84616e-07
5.29635e-06
-1.01954e-05
2.87301e-07
2.15444e-06
-9.45437e-06
2.66041e-07
-2.10145e-06
-6.8343e-06
3.14612e-07
-6.54895e-06
-2.8389e-06
2.98182e-07
-8.70561e-06
-7.22408e-15
-5.04448e-06
-4.15215e-07
2.38768e-06
-1.20103e-06
3.98286e-06
-2.11063e-06
4.37001e-06
-3.0516e-06
4.19756e-06
-3.90195e-06
3.57302e-06
-4.42581e-06
2.38315e-06
-4.28226e-06
5.59548e-07
-3.17379e-06
-1.61067e-06
-1.30709e-06
-3.08999e-06
-2.19064e-06
-5.07707e-07
-6.54603e-07
3.54999e-06
-1.35139e-06
-8.1066e-07
5.63719e-06
-2.30684e-06
-6.56055e-07
5.98152e-06
-3.38018e-06
-3.47089e-07
5.61799e-06
-4.54226e-06
1.30582e-08
4.72204e-06
-5.56013e-06
2.90995e-07
3.11003e-06
-5.92699e-06
3.94057e-07
5.32348e-07
-4.96055e-06
2.42928e-07
-2.82003e-06
-2.45845e-06
2.55902e-09
-5.59466e-06
9.42218e-09
-4.65851e-06
-1.46946e-06
-1.08558e-06
5.89106e-06
-3.83765e-06
-1.42828e-06
1.02182e-05
-6.36665e-06
-1.12575e-06
1.09339e-05
-8.8189e-06
-5.04253e-07
9.81227e-06
-1.09883e-05
2.04852e-07
7.27399e-06
-1.24596e-05
7.85922e-07
3.13076e-06
-1.24533e-05
1.02952e-06
-2.74324e-06
-9.98315e-06
7.77285e-07
-9.55342e-06
-4.84587e-06
2.42195e-07
-1.40825e-05
1.20294e-08
-9.89296e-06
-2.21719e-06
-1.03531e-06
6.60261e-06
-5.73708e-06
-1.4011e-06
1.17501e-05
-9.31528e-06
-1.07571e-06
1.24618e-05
-1.24662e-05
-4.07067e-07
1.0718e-05
-1.48942e-05
3.49897e-07
7.09246e-06
-1.61636e-05
9.62948e-07
1.52608e-06
-1.55726e-05
1.20903e-06
-5.90837e-06
-1.21731e-05
9.35101e-07
-1.40971e-05
-5.83628e-06
3.5664e-07
-1.89963e-05
1.86982e-08
-1.26056e-05
-2.70414e-06
-6.11074e-07
6.78011e-06
-6.95486e-06
-8.37337e-07
1.21352e-05
-1.11186e-05
-6.29992e-07
1.27048e-05
-1.45362e-05
-2.06949e-07
1.05412e-05
-1.68989e-05
2.67929e-07
6.34605e-06
-1.78446e-05
6.4732e-07
1.60505e-07
-1.68361e-05
7.82247e-07
-7.77735e-06
-1.30024e-05
5.99612e-07
-1.6378e-05
-6.20674e-06
2.38925e-07
-2.13017e-05
1.51099e-08
-1.38533e-05
-2.93733e-06
-7.97682e-13
6.80863e-06
-7.53136e-06
-8.22338e-13
1.21882e-05
-1.19422e-05
-7.72431e-13
1.26527e-05
-1.54263e-05
-6.34276e-13
1.02866e-05
-1.76865e-05
-4.9318e-13
5.86857e-06
-1.84415e-05
-3.47045e-13
-4.86565e-07
-1.72444e-05
-2.48124e-13
-8.54987e-06
-1.32685e-05
-2.1888e-13
-1.72456e-05
-6.33478e-06
-1.67615e-13
-2.21649e-05
-1.67083e-13
-1.43248e-05
-2.93733e-06
6.11073e-07
6.80863e-06
-7.53136e-06
8.37336e-07
1.21882e-05
-1.19422e-05
6.29991e-07
1.26527e-05
-1.54263e-05
2.06948e-07
1.02866e-05
-1.76865e-05
-2.6793e-07
5.86857e-06
-1.84415e-05
-6.47321e-07
-4.86565e-07
-1.72444e-05
-7.82247e-07
-8.54987e-06
-1.32685e-05
-5.99612e-07
-1.72456e-05
-6.33478e-06
-2.38925e-07
-2.21649e-05
-1.51101e-08
-1.43248e-05
-2.70414e-06
1.03531e-06
6.78011e-06
-6.95486e-06
1.4011e-06
1.21352e-05
-1.11186e-05
1.07571e-06
1.27048e-05
-1.45362e-05
4.07066e-07
1.05412e-05
-1.68989e-05
-3.49898e-07
6.34605e-06
-1.78446e-05
-9.62948e-07
1.60505e-07
-1.68361e-05
-1.20903e-06
-7.77735e-06
-1.30024e-05
-9.35101e-07
-1.6378e-05
-6.20674e-06
-3.5664e-07
-2.13017e-05
-1.86985e-08
-1.38533e-05
-2.21719e-06
1.08558e-06
6.60262e-06
-5.73708e-06
1.42828e-06
1.17501e-05
-9.31528e-06
1.12575e-06
1.24618e-05
-1.24662e-05
5.04252e-07
1.0718e-05
-1.48942e-05
-2.04853e-07
7.09247e-06
-1.61636e-05
-7.85922e-07
1.52608e-06
-1.55726e-05
-1.02952e-06
-5.90837e-06
-1.21731e-05
-7.77285e-07
-1.40971e-05
-5.83628e-06
-2.42196e-07
-1.89963e-05
-1.20296e-08
-1.26056e-05
-1.46946e-06
6.54602e-07
5.89106e-06
-3.83765e-06
8.1066e-07
1.02182e-05
-6.36665e-06
6.56054e-07
1.09339e-05
-8.8189e-06
3.47089e-07
9.81227e-06
-1.09883e-05
-1.30583e-08
7.274e-06
-1.24596e-05
-2.90995e-07
3.13076e-06
-1.24533e-05
-3.94057e-07
-2.74324e-06
-9.98315e-06
-2.42928e-07
-9.55341e-06
-4.84587e-06
-2.55915e-09
-1.40825e-05
-9.42219e-09
-9.89296e-06
-5.07706e-07
3.54999e-06
-1.35138e-06
5.63719e-06
-2.30684e-06
5.98152e-06
-3.38018e-06
5.61799e-06
-4.54226e-06
4.72204e-06
-5.56013e-06
3.11003e-06
-5.92699e-06
5.32348e-07
-4.96055e-06
-2.82003e-06
-2.45845e-06
-5.59466e-06
-4.65851e-06
-6.99353e-07
-7.29355e-07
4.9787e-06
-1.52037e-06
-8.29924e-07
7.28813e-06
-2.35467e-06
-5.12633e-07
7.32844e-06
-3.40508e-06
4.60315e-08
6.62237e-06
-4.80248e-06
6.8926e-07
5.43018e-06
-6.41571e-06
1.25771e-06
3.46555e-06
-7.61436e-06
1.52209e-06
2.08908e-07
-7.23828e-06
1.22532e-06
-4.42143e-06
-4.28425e-06
4.92859e-07
-9.04155e-06
-6.43739e-08
-8.87838e-06
-1.75358e-06
-1.1781e-06
8.09339e-06
-4.14362e-06
-1.43367e-06
1.3212e-05
-6.51761e-06
-8.45378e-07
1.36407e-05
-8.89314e-06
2.03712e-07
1.20301e-05
-1.13104e-05
1.3949e-06
8.98562e-06
-1.34859e-05
2.39143e-06
4.17252e-06
-1.45659e-05
2.79066e-06
-2.93178e-06
-1.29998e-05
2.23423e-06
-1.21285e-05
-7.41742e-06
9.48678e-07
-2.01207e-05
-5.91533e-08
-1.73156e-05
-2.50763e-06
-1.10234e-06
9.03449e-06
-6.04614e-06
-1.3814e-06
1.52363e-05
-9.40628e-06
-7.74881e-07
1.57514e-05
-1.23495e-05
3.02476e-07
1.35624e-05
-1.4837e-05
1.49282e-06
9.48207e-06
-1.66347e-05
2.4312e-06
3.28397e-06
-1.70778e-05
2.71775e-06
-5.39228e-06
-1.47792e-05
2.09541e-06
-1.62569e-05
-8.35842e-06
8.69583e-07
-2.53381e-05
-3.03653e-08
-2.09928e-05
-2.97501e-06
-6.42572e-07
9.29534e-06
-7.20795e-06
-8.151e-07
1.58018e-05
-1.10673e-05
-4.39453e-07
1.62288e-05
-1.4137e-05
2.2248e-07
1.36909e-05
-1.6386e-05
9.36473e-07
9.1514e-06
-1.77347e-05
1.46841e-06
2.47198e-06
-1.7752e-05
1.59374e-06
-6.636e-06
-1.52144e-05
1.18878e-06
-1.8009e-05
-8.65047e-06
4.79221e-07
-2.74752e-05
-9.25736e-09
-2.25249e-05
-3.19019e-06
-5.51247e-13
9.35625e-06
-7.73486e-06
-5.93951e-13
1.59177e-05
-1.17834e-05
-5.78745e-13
1.62617e-05
-1.48373e-05
-4.94798e-13
1.3563e-05
-1.69021e-05
-3.55917e-13
8.86986e-06
-1.80024e-05
-2.71491e-13
2.08218e-06
-1.78639e-05
-2.25894e-13
-7.09469e-06
-1.53058e-05
-1.95034e-13
-1.86149e-05
-8.75665e-06
-1.54908e-13
-2.82349e-05
-1.6947e-13
-2.30907e-05
-3.19019e-06
6.42571e-07
9.35625e-06
-7.73486e-06
8.15099e-07
1.59177e-05
-1.17834e-05
4.39451e-07
1.62617e-05
-1.48373e-05
-2.22481e-07
1.3563e-05
-1.69021e-05
-9.36474e-07
8.86986e-06
-1.80024e-05
-1.46841e-06
2.08218e-06
-1.78639e-05
-1.59374e-06
-7.09469e-06
-1.53058e-05
-1.18878e-06
-1.86149e-05
-8.75665e-06
-4.79221e-07
-2.82349e-05
9.25711e-09
-2.30907e-05
-2.97501e-06
1.10234e-06
9.29534e-06
-7.20795e-06
1.3814e-06
1.58018e-05
-1.10673e-05
7.7488e-07
1.62288e-05
-1.4137e-05
-3.02477e-07
1.36909e-05
-1.6386e-05
-1.49282e-06
9.1514e-06
-1.77347e-05
-2.4312e-06
2.47198e-06
-1.7752e-05
-2.71775e-06
-6.636e-06
-1.52144e-05
-2.09541e-06
-1.8009e-05
-8.65047e-06
-8.69584e-07
-2.74752e-05
3.0365e-08
-2.25249e-05
-2.50763e-06
1.1781e-06
9.03449e-06
-6.04614e-06
1.43367e-06
1.52363e-05
-9.40628e-06
8.45377e-07
1.57514e-05
-1.23495e-05
-2.03713e-07
1.35624e-05
-1.4837e-05
-1.3949e-06
9.48207e-06
-1.66347e-05
-2.39143e-06
3.28397e-06
-1.70778e-05
-2.79066e-06
-5.39228e-06
-1.47792e-05
-2.23423e-06
-1.62569e-05
-8.35842e-06
-9.48678e-07
-2.53381e-05
5.91531e-08
-2.09928e-05
-1.75358e-06
7.29355e-07
8.09339e-06
-4.14362e-06
8.29923e-07
1.3212e-05
-6.51761e-06
5.12632e-07
1.36407e-05
-8.89313e-06
-4.6032e-08
1.20301e-05
-1.13104e-05
-6.89261e-07
8.98562e-06
-1.34859e-05
-1.25771e-06
4.17252e-06
-1.45659e-05
-1.52209e-06
-2.93178e-06
-1.29998e-05
-1.22532e-06
-1.21285e-05
-7.41742e-06
-4.9286e-07
-2.01207e-05
6.43737e-08
-1.73156e-05
-6.99353e-07
4.9787e-06
-1.52037e-06
7.28814e-06
-2.35467e-06
7.32845e-06
-3.40508e-06
6.62237e-06
-4.80248e-06
5.43018e-06
-6.41571e-06
3.46555e-06
-7.61436e-06
2.08908e-07
-7.23828e-06
-4.42143e-06
-4.28425e-06
-9.04155e-06
-8.87838e-06
-1.23173e-06
-8.29824e-07
7.04025e-06
-1.84409e-06
-8.41099e-07
8.74159e-06
-2.20068e-06
-3.20127e-07
8.00516e-06
-2.83655e-06
5.2076e-07
6.73748e-06
-4.13781e-06
1.50118e-06
5.23026e-06
-6.17974e-06
2.43596e-06
3.07152e-06
-8.42172e-06
2.97327e-06
-5.22386e-07
-9.22724e-06
2.58709e-06
-6.203e-06
-6.50487e-06
1.20286e-06
-1.29668e-05
-2.93817e-07
-1.50894e-05
-2.38531e-06
-1.27037e-06
1.09193e-05
-4.40138e-06
-1.40939e-06
1.57964e-05
-5.91771e-06
-5.11324e-07
1.53482e-05
-7.38606e-06
9.51701e-07
1.30675e-05
-9.21369e-06
2.5967e-06
9.71774e-06
-1.14527e-05
4.00746e-06
4.84003e-06
-1.35108e-05
4.61081e-06
-2.51121e-06
-1.36526e-05
3.76e-06
-1.31596e-05
-9.2858e-06
1.5771e-06
-2.48617e-05
-4.17586e-07
-2.64776e-05
-3.02903e-06
-1.15065e-06
1.19438e-05
-6.0428e-06
-1.32406e-06
1.81647e-05
-8.31068e-06
-4.44665e-07
1.79526e-05
-1.00321e-05
9.78055e-07
1.52575e-05
-1.1549e-05
2.51376e-06
1.10819e-05
-1.30351e-05
3.71149e-06
5.06597e-06
-1.42375e-05
4.04914e-06
-3.62819e-06
-1.3875e-05
3.09076e-06
-1.59502e-05
-9.46751e-06
1.16226e-06
-2.93307e-05
-3.39403e-07
-3.05385e-05
-3.39283e-06
-6.58026e-07
1.21956e-05
-6.966e-06
-7.6888e-07
1.88198e-05
-9.56869e-06
-2.40941e-07
1.86277e-05
-1.12348e-05
6.06026e-07
1.57291e-05
-1.23263e-05
1.49127e-06
1.12654e-05
-1.32083e-05
2.13425e-06
4.93114e-06
-1.39439e-05
2.2441e-06
-4.09536e-06
-1.3539e-05
1.63352e-06
-1.69566e-05
-9.42588e-06
5.69066e-07
-3.09952e-05
-1.73218e-07
-3.2117e-05
-3.54976e-06
-4.48377e-13
1.2248e-05
-7.35747e-06
-4.88009e-13
1.89565e-05
-1.00653e-05
-4.8632e-13
1.87286e-05
-1.16367e-05
-4.11059e-13
1.57404e-05
-1.24773e-05
-3.04478e-13
1.12017e-05
-1.30839e-05
-2.55052e-13
4.82304e-06
-1.36836e-05
-2.12171e-13
-4.25089e-06
-1.33694e-05
-1.954e-13
-1.72955e-05
-9.43861e-06
-1.58403e-13
-3.15966e-05
-1.67596e-13
-3.27025e-05
-3.54976e-06
6.58025e-07
1.2248e-05
-7.35747e-06
7.68879e-07
1.89565e-05
-1.00653e-05
2.4094e-07
1.87286e-05
-1.16367e-05
-6.06027e-07
1.57404e-05
-1.24773e-05
-1.49127e-06
1.12017e-05
-1.30839e-05
-2.13425e-06
4.82304e-06
-1.36836e-05
-2.2441e-06
-4.25089e-06
-1.33694e-05
-1.63352e-06
-1.72955e-05
-9.43861e-06
-5.69066e-07
-3.15966e-05
1.73217e-07
-3.27025e-05
-3.39283e-06
1.15065e-06
1.21956e-05
-6.966e-06
1.32405e-06
1.88198e-05
-9.56869e-06
4.44664e-07
1.86277e-05
-1.12348e-05
-9.78056e-07
1.57291e-05
-1.23263e-05
-2.51376e-06
1.12654e-05
-1.32083e-05
-3.71149e-06
4.93114e-06
-1.39439e-05
-4.04915e-06
-4.09536e-06
-1.3539e-05
-3.09076e-06
-1.69566e-05
-9.42588e-06
-1.16226e-06
-3.09952e-05
3.39403e-07
-3.2117e-05
-3.02903e-06
1.27037e-06
1.19438e-05
-6.0428e-06
1.40939e-06
1.81647e-05
-8.31068e-06
5.11323e-07
1.79526e-05
-1.00321e-05
-9.51702e-07
1.52575e-05
-1.1549e-05
-2.5967e-06
1.10819e-05
-1.30351e-05
-4.00746e-06
5.06597e-06
-1.42375e-05
-4.61081e-06
-3.62819e-06
-1.3875e-05
-3.76e-06
-1.59502e-05
-9.46751e-06
-1.5771e-06
-2.93307e-05
4.17586e-07
-3.05385e-05
-2.38531e-06
8.29823e-07
1.09193e-05
-4.40138e-06
8.41099e-07
1.57964e-05
-5.91771e-06
3.20126e-07
1.53482e-05
-7.38606e-06
-5.20761e-07
1.30675e-05
-9.21369e-06
-1.50118e-06
9.71774e-06
-1.14527e-05
-2.43596e-06
4.84003e-06
-1.35108e-05
-2.97327e-06
-2.51121e-06
-1.36526e-05
-2.58709e-06
-1.31596e-05
-9.2858e-06
-1.20286e-06
-2.48617e-05
2.93817e-07
-2.64776e-05
-1.23173e-06
7.04026e-06
-1.84409e-06
8.74159e-06
-2.20068e-06
8.00516e-06
-2.83655e-06
6.73748e-06
-4.13781e-06
5.23026e-06
-6.17974e-06
3.07152e-06
-8.42172e-06
-5.22386e-07
-9.22724e-06
-6.203e-06
-6.50487e-06
-1.29668e-05
-1.50894e-05
-2.47712e-06
-1.08529e-06
1.06027e-05
-2.24231e-06
-1.07689e-06
9.58367e-06
-1.29789e-06
-3.92552e-07
7.45329e-06
-7.43193e-07
6.70352e-07
5.51243e-06
-1.22623e-06
1.90173e-06
3.81156e-06
-3.08003e-06
3.1388e-06
1.78653e-06
-6.14615e-06
4.02741e-06
-1.48368e-06
-8.68006e-06
3.68765e-06
-7.35674e-06
-7.66921e-06
1.62822e-06
-1.56058e-05
-1.00883e-06
-2.17498e-05
-4.03052e-06
-1.53011e-06
1.53946e-05
-4.69437e-06
-1.66026e-06
1.70436e-05
-3.90329e-06
-5.97301e-07
1.47619e-05
-2.94201e-06
1.05636e-06
1.17202e-05
-2.6725e-06
2.91506e-06
8.43489e-06
-3.58579e-06
4.58491e-06
4.30722e-06
-5.74364e-06
5.50063e-06
-1.82658e-06
-8.05352e-06
4.61063e-06
-1.17727e-05
-7.44463e-06
1.63564e-06
-2.54781e-05
-1.37345e-06
-3.35576e-05
-4.64436e-06
-1.30457e-06
1.63626e-05
-6.01631e-06
-1.47275e-06
1.93492e-05
-5.56234e-06
-4.93837e-07
1.73952e-05
-4.38843e-06
1.01102e-06
1.4129e-05
-3.32079e-06
2.62256e-06
1.03067e-05
-3.00367e-06
3.9409e-06
5.39285e-06
-3.8893e-06
4.46946e-06
-1.71139e-06
-5.78153e-06
3.47052e-06
-1.29178e-05
-6.00885e-06
1.03432e-06
-2.8502e-05
-1.01231e-06
-3.69085e-05
-4.90741e-06
-7.19461e-07
1.65179e-05
-6.6411e-06
-8.26304e-07
1.99071e-05
-6.32879e-06
-2.58337e-07
1.80799e-05
-4.96389e-06
6.03948e-07
1.47713e-05
-3.38981e-06
1.49587e-06
1.0818e-05
-2.40325e-06
2.1767e-06
5.70879e-06
-2.74146e-06
2.37846e-06
-1.66614e-06
-4.6715e-06
1.75627e-06
-1.33123e-05
-5.50462e-06
4.71785e-07
-2.95995e-05
-4.83992e-07
-3.81499e-05
-5.00014e-06
-4.01785e-13
1.65287e-05
-6.86609e-06
-4.57814e-13
1.99962e-05
-6.58005e-06
-4.68615e-13
1.81842e-05
-5.09651e-06
-3.93647e-13
1.48608e-05
-3.2909e-06
-3.19044e-13
1.0892e-05
-2.05722e-06
-2.84299e-13
5.76605e-06
-2.26345e-06
-2.56689e-13
-1.6662e-06
-4.32841e-06
-1.96873e-13
-1.34743e-05
-5.43001e-06
-1.40301e-13
-3.00232e-05
-1.29078e-13
-3.86165e-05
-5.00014e-06
7.1946e-07
1.65287e-05
-6.86609e-06
8.26303e-07
1.99962e-05
-6.58005e-06
2.58336e-07
1.81842e-05
-5.09651e-06
-6.03949e-07
1.48608e-05
-3.2909e-06
-1.49587e-06
1.0892e-05
-2.05722e-06
-2.1767e-06
5.76605e-06
-2.26345e-06
-2.37846e-06
-1.6662e-06
-4.32841e-06
-1.75627e-06
-1.34743e-05
-5.43001e-06
-4.71785e-07
-3.00232e-05
4.83992e-07
-3.86165e-05
-4.90741e-06
1.30457e-06
1.65179e-05
-6.6411e-06
1.47275e-06
1.99071e-05
-6.32879e-06
4.93836e-07
1.80799e-05
-4.96389e-06
-1.01102e-06
1.47713e-05
-3.38981e-06
-2.62256e-06
1.0818e-05
-2.40325e-06
-3.9409e-06
5.70879e-06
-2.74146e-06
-4.46946e-06
-1.66614e-06
-4.6715e-06
-3.47052e-06
-1.33123e-05
-5.50462e-06
-1.03432e-06
-2.95995e-05
1.01231e-06
-3.81499e-05
-4.64436e-06
1.53011e-06
1.63626e-05
-6.01631e-06
1.66026e-06
1.93492e-05
-5.56234e-06
5.97301e-07
1.73952e-05
-4.38843e-06
-1.05636e-06
1.4129e-05
-3.32079e-06
-2.91506e-06
1.03067e-05
-3.00367e-06
-4.58491e-06
5.39285e-06
-3.8893e-06
-5.50063e-06
-1.71139e-06
-5.78153e-06
-4.61063e-06
-1.29178e-05
-6.00885e-06
-1.63564e-06
-2.8502e-05
1.37345e-06
-3.69085e-05
-4.03052e-06
1.08529e-06
1.53946e-05
-4.69437e-06
1.07689e-06
1.70436e-05
-3.90329e-06
3.92552e-07
1.47619e-05
-2.94201e-06
-6.70352e-07
1.17202e-05
-2.6725e-06
-1.90173e-06
8.43489e-06
-3.58579e-06
-3.1388e-06
4.30722e-06
-5.74364e-06
-4.02741e-06
-1.82658e-06
-8.05352e-06
-3.68765e-06
-1.17727e-05
-7.44463e-06
-1.62822e-06
-2.54781e-05
1.00883e-06
-3.35576e-05
-2.47712e-06
1.06027e-05
-2.24231e-06
9.58367e-06
-1.29789e-06
7.4533e-06
-7.43192e-07
5.51243e-06
-1.22623e-06
3.81156e-06
-3.08003e-06
1.78653e-06
-6.14615e-06
-1.48368e-06
-8.68006e-06
-7.35674e-06
-7.66921e-06
-1.56058e-05
-2.17498e-05
-2.67234e-06
-1.85782e-06
1.51328e-05
5.07818e-07
-1.98533e-06
8.38884e-06
4.54219e-06
-1.19775e-06
4.61667e-06
7.40438e-06
-1.44447e-07
2.79468e-06
8.59414e-06
1.09573e-06
1.52607e-06
7.66885e-06
2.38222e-06
3.29598e-07
4.35936e-06
3.55283e-06
-1.72703e-06
-6.14122e-07
3.45573e-06
-5.83898e-06
-3.46982e-06
9.103e-07
-1.36604e-05
-2.71685e-06
-2.25028e-05
-4.77433e-06
-2.23161e-06
2.05427e-05
-7.84195e-07
-2.67462e-06
1.37427e-05
5.13149e-06
-1.76759e-06
9.41604e-06
1.02778e-05
-2.9768e-07
6.72713e-06
1.39564e-05
1.37094e-06
4.48113e-06
1.54801e-05
3.00958e-06
2.15609e-06
1.40379e-05
4.27668e-06
-1.10814e-06
9.31442e-06
3.847e-06
-7.44052e-06
3.09153e-06
7.02696e-07
-1.90476e-05
-2.75673e-06
-3.04262e-05
-5.53855e-06
-1.70828e-06
2.13778e-05
-1.74584e-06
-2.16871e-06
1.50506e-05
4.32536e-06
-1.44263e-06
1.0999e-05
1.01508e-05
-2.40419e-07
8.24627e-06
1.49663e-05
1.10601e-06
5.75617e-06
1.79715e-05
2.35464e-06
3.04258e-06
1.79156e-05
3.20257e-06
-5.81362e-07
1.37051e-05
2.75658e-06
-7.61692e-06
5.71175e-06
4.41334e-07
-2.02473e-05
-1.72558e-06
-3.22279e-05
-5.73375e-06
-8.87205e-07
2.14305e-05
-2.0824e-06
-1.15367e-06
1.52407e-05
3.98828e-06
-7.56676e-07
1.13233e-05
1.00234e-05
-1.10823e-07
8.60653e-06