/*--------------------------------*- C++ -*----------------------------------*\
  =========                 |
  \\      /  F ield         | OpenFOAM: The Open Source CFD Toolbox
   \\    /   O peration     | Website:  https://openfoam.org
    \\  /    A nd           | Version:  9
     \\/     M anipulation  |
\*---------------------------------------------------------------------------*/
FoamFile
{
    format      ascii;
    class       volScalarField;
    location    "0.39";
    object      p;
}
// * * * * * * * * * * * * * * * * * * * * * * * * * * * * * * * * * * * * * //

dimensions      [0 2 -2 0 0 0 0];

internalField   nonuniform List<scalar> 
1000
(
1.10669e-08
-0.000411025
4.69801e-05
0.00127894
0.00329712
0.00594422
0.00878284
0.0111107
0.0122505
0.0114927
0.000170517
-0.000591873
-0.00021861
0.00105708
0.00323143
0.00613249
0.00926435
0.0117865
0.0128814
0.0116207
0.000778251
-0.00020889
0.00013288
0.00148604
0.0038539
0.00705054
0.0105058
0.0131805
0.0141045
0.012213
0.00140155
0.000275857
0.000603592
0.0020257
0.00455694
0.00800749
0.0116865
0.0144425
0.0151989
0.0128355
0.0017815
0.000594508
0.00091838
0.00237796
0.00499435
0.00857145
0.0123701
0.0151596
0.0158204
0.0132174
0.00178125
0.000594296
0.000918214
0.00237784
0.00499427
0.0085714
0.0123701
0.0151596
0.0158204
0.0132174
0.00140075
0.000275179
0.000603077
0.00202534
0.00455669
0.00800733
0.0116864
0.0144425
0.0151989
0.0128355
0.000776661
-0.000210171
0.000131956
0.00148541
0.00385348
0.00705028
0.0105057
0.0131805
0.0141044
0.0122129
0.000167511
-0.000593992
-0.000219989
0.00105619
0.00323088
0.00613214
0.00926416
0.0117865
0.0128813
0.0116207
-5.94537e-06
-0.000414143
4.52268e-05
0.00127788
0.00329648
0.00594383
0.00878264
0.0111106
0.0122505
0.0114927
0.000307752
-9.00442e-05
0.000384202
0.00151655
0.00333834
0.00575342
0.0083996
0.0106667
0.0118324
0.0108366
0.000814606
1.31746e-05
0.000422585
0.00154512
0.00339118
0.00587904
0.00865059
0.0110169
0.0121406
0.0105158
0.00178795
0.000663373
0.00102624
0.0021549
0.00406189
0.00666837
0.00964349
0.0120897
0.0130535
0.0107638
0.00264853
0.0013049
0.00162972
0.00276578
0.00473536
0.00747747
0.010595
0.0130856
0.0138999
0.0111415
0.00314
0.00168905
0.00199342
0.00313328
0.00513706
0.00795592
0.0111481
0.0136564
0.014387
0.0114035
0.00313979
0.00168886
0.00199328
0.00313317
0.00513699
0.00795588
0.0111481
0.0136563
0.014387
0.0114035
0.00264785
0.00130432
0.00162928
0.00276546
0.00473513
0.00747733
0.0105949
0.0130856
0.0138999
0.0111414
0.00178668
0.000662323
0.00102546
0.00215436
0.00406151
0.00666814
0.00964336
0.0120896
0.0130535
0.0107637
0.000812504
1.1549e-05
0.00042145
0.00154435
0.00339068
0.00587873
0.00865042
0.0110168
0.0121406
0.0105158
0.000304638
-9.22029e-05
0.000382806
0.00151565
0.00333777
0.00575307
0.00839939
0.0106666
0.0118323
0.0108366
-0.00096381
-0.00149243
-0.00108
-5.31017e-05
0.00169135
0.00419516
0.00721728
0.0101181
0.0118776
0.0106884
-0.000161069
-0.00124104
-0.000898938
0.000115989
0.00188074
0.0044736
0.00765639
0.0107044
0.0123989
0.0101328
0.00124799
-0.000295093
-3.40589e-05
0.000933073
0.00270146
0.0054009
0.00876724
0.0119298
0.0134496
0.0102224
0.00244143
0.000584504
0.000773314
0.0016955
0.00346886
0.00625341
0.00975583
0.0129761
0.0143308
0.0104709
0.00310501
0.001094
0.00124192
0.0021377
0.00391379
0.00674609
0.0103113
0.0135497
0.0148122
0.010663
0.00310485
0.00109385
0.0012418
0.00213761
0.00391373
0.00674604
0.0103113
0.0135497
0.0148122
0.010663
0.00244092
0.000584067
0.000772959
0.00169524
0.00346866
0.00625327
0.00975574
0.012976
0.0143308
0.0104709
0.0012471
-0.00029586
-3.46636e-05
0.000932636
0.00270114
0.00540069
0.00876711
0.0119297
0.0134496
0.0102224
-0.000162402
-0.00124215
-0.000899779
0.00011539
0.00188033
0.00447332
0.00765622
0.0107043
0.0123989
0.0101328
-0.000965524
-0.0014938
-0.001081
-5.37879e-05
0.00169088
0.00419484
0.00721706
0.010118
0.0118775
0.0106884
-0.00416001
-0.00480786
-0.00448144
-0.00360521
-0.00194942
0.000783818
0.00462344
0.00897804
0.0123006
0.0114485
-0.00303968
-0.00439352
-0.00414441
-0.00327041
-0.00157287
0.00129778
0.00538469
0.0100492
0.0133125
0.0108354
-0.00114634
-0.00311451
-0.00301483
-0.00229153
-0.000709026
0.00218909
0.00643064
0.0113192
0.0144928
0.0108633
0.000428554
-0.00195625
-0.00199306
-0.00141401
5.42376e-05
0.00291863
0.00727318
0.0122807
0.0153462
0.0110286
0.00129265
-0.00129626
-0.0014108
-0.000915155
0.000488544
0.0033381
0.00772659
0.0127726
0.015773
0.0111614
0.00129254
-0.00129637
-0.00141089
-0.000915223
0.000488491
0.00333806
0.00772656
0.0127725
0.015773
0.0111614
0.000428193
-0.00195656
-0.00199332
-0.00141422
5.40783e-05
0.00291851
0.00727309
0.0122806
0.0153461
0.0110285
-0.00114695
-0.00311505
-0.00301527
-0.00229186
-0.000709276
0.00218891
0.00643051
0.0113192
0.0144927
0.0108633
-0.00304053
-0.00439426
-0.00414501
-0.00327086
-0.0015732
0.00129753
0.00538451
0.010049
0.0133124
0.0108354
-0.00416103
-0.00480874
-0.00448214
-0.00360573
-0.00194981
0.000783532
0.00462323
0.00897789
0.0123005
0.0114484
-0.00997196
-0.01059
-0.0102972
-0.00962459
-0.00816907
-0.00521216
-0.000123116
0.00684868
0.0134138
0.0145347
-0.00852816
-0.0100131
-0.00982692
-0.00918522
-0.00771743
-0.00463455
0.000748391
0.00826231
0.0149323
0.0142789
-0.00617471
-0.00843764
-0.00854222
-0.0082775
-0.00722231
-0.00441837
0.000957638
0.00886576
0.0158056
0.01437
-0.00424844
-0.0070355
-0.00739745
-0.0074714
-0.00677121
-0.00421133
0.0011036
0.00922194
0.0162987
0.0145026
-0.00320401
-0.00624596
-0.00675103
-0.00701119
-0.00650658
-0.00407818
0.00118655
0.00937824
0.0165024
0.0145821
-0.0032041
-0.00624604
-0.0067511
-0.00701124
-0.00650662
-0.00407821
0.00118653
0.00937822
0.0165024
0.014582
-0.0042487
-0.00703573
-0.00739765
-0.00747155
-0.00677133
-0.00421143
0.00110353
0.00922188
0.0162986
0.0145025
-0.00617513
-0.00843802
-0.00854254
-0.00827774
-0.0072225
-0.00441852
0.000957517
0.00886565
0.0158055
0.0143699
-0.00852872
-0.0100136
-0.00982735
-0.00918555
-0.00771769
-0.00463475
0.00074822
0.00826218
0.0149322
0.0142788
-0.00997261
-0.0105906
-0.0102977
-0.00962497
-0.00816938
-0.00521238
-0.0001233
0.00684855
0.0134137
0.0145346
-0.0191659
-0.0192611
-0.0187059
-0.0181713
-0.0170113
-0.0138899
-0.00717369
0.00378394
0.0162203
0.0227087
-0.0173793
-0.0185563
-0.0182139
-0.0178532
-0.0169089
-0.0140493
-0.00745592
0.00405077
0.0171227
0.0230801
-0.0146188
-0.0167603
-0.0169568
-0.0173764
-0.0173739
-0.0154095
-0.00930796
0.00268661
0.016759
0.0232126
-0.0124096
-0.0151829
-0.0158229
-0.0168821
-0.0176272
-0.0163372
-0.0106022
0.00164603
0.016313
0.0232337
-0.01123
-0.0143047
-0.0151809
-0.0165608
-0.0177013
-0.0167562
-0.0111999
0.00113982
0.0160581
0.0232166
-0.01123
-0.0143048
-0.0151809
-0.0165609
-0.0177013
-0.0167563
-0.0111999
0.00113979
0.0160581
0.0232166
-0.0124098
-0.015183
-0.0158231
-0.0168822
-0.0176273
-0.0163373
-0.0106023
0.00164596
0.0163129
0.0232337
-0.0146191
-0.0167606
-0.0169571
-0.0173766
-0.017374
-0.0154097
-0.0093081
0.00268648
0.0167589
0.0232124
-0.0173797
-0.0185567
-0.0182141
-0.0178534
-0.0169091
-0.0140495
-0.00745609
0.00405063
0.0171226
0.02308
-0.0191663
-0.0192615
-0.0187062
-0.0181715
-0.0170116
-0.0138901
-0.00717389
0.00378378
0.0162202
0.0227085
-0.0330304
-0.0309493
-0.0292153
-0.0283632
-0.0273859
-0.0242081
-0.0158507
0.000295535
0.0217746
0.0402419
-0.0307091
-0.0300689
-0.0288279
-0.0285137
-0.0282925
-0.0262285
-0.0190899
-0.00303033
0.0196324
0.0404087
-0.0274987
-0.0280094
-0.0276546
-0.0286562
-0.0300999
-0.0298478
-0.0240578
-0.00769747
0.0167744
0.0403056
-0.0250347
-0.026257
-0.0265564
-0.0285335
-0.031171
-0.0321224
-0.0271386
-0.0105667
0.0149753
0.0401989
-0.0237515
-0.0253022
-0.025936
-0.0283942
-0.0316016
-0.0331044
-0.0284733
-0.0118139
0.0141833
0.0401268
-0.0237515
-0.0253022
-0.0259361
-0.0283943
-0.0316017
-0.0331044
-0.0284733
-0.011814
0.0141833
0.0401268
-0.0250348
-0.0262572
-0.0265565
-0.0285336
-0.0311711
-0.0321225
-0.0271387
-0.0105668
0.0149752
0.0401988
-0.0274989
-0.0280096
-0.0276547
-0.0286563
-0.0301001
-0.0298479
-0.024058
-0.0076976
0.0167743
0.0403055
-0.0307093
-0.0300691
-0.0288281
-0.0285139
-0.0282927
-0.0262287
-0.01909
-0.00303048
0.0196322
0.0404085
-0.0330307
-0.0309496
-0.0292155
-0.0283633
-0.0273861
-0.0242083
-0.0158509
0.000295375
0.0217744
0.0402418
-0.0556293
-0.0454199
-0.0404399
-0.0379959
-0.0365833
-0.033115
-0.0235749
-0.00151774
0.0313996
0.0739701
-0.0521279
-0.0439252
-0.0398856
-0.0387271
-0.0388666
-0.0376001
-0.0309364
-0.010418
0.0237451
0.0743475
-0.0479412
-0.0410397
-0.0381823
-0.0389332
-0.0414296
-0.0426773
-0.0381646
-0.0176117
0.0189519
0.0756113
-0.0449648
-0.0387868
-0.0367082
-0.0387012
-0.0427418
-0.0454984
-0.0421005
-0.0212423
0.0168368
0.0768106
-0.0434875
-0.0376239
-0.0359243
-0.0384975
-0.0432291
-0.046632
-0.0436886
-0.0226545
0.0161093
0.0773775
-0.0434876
-0.0376239
-0.0359243
-0.0384976
-0.0432292
-0.046632
-0.0436886
-0.0226545
0.0161092
0.0773774
-0.0449649
-0.0387868
-0.0367082
-0.0387012
-0.0427418
-0.0454984
-0.0421006
-0.0212424
0.0168367
0.0768105
-0.0479413
-0.0410398
-0.0381824
-0.0389333
-0.0414297
-0.0426774
-0.0381647
-0.0176118
0.0189518
0.0756111
-0.0521281
-0.0439253
-0.0398858
-0.0387272
-0.0388667
-0.0376002
-0.0309366
-0.0104182
0.0237449
0.0743473
-0.0556294
-0.04542
-0.04044
-0.037996
-0.0365835
-0.0331152
-0.0235751
-0.00151792
0.0313994
0.0739699
-0.0875995
-0.0601464
-0.050777
-0.0447201
-0.0416434
-0.0370684
-0.0248583
0.0056061
0.0519736
0.150861
-0.0798413
-0.0564318
-0.0494755
-0.0458313
-0.0450338
-0.043182
-0.0347549
-0.00529704
0.0453635
0.16226
-0.0735113
-0.051814
-0.0464307
-0.0452139
-0.0473062
-0.0481874
-0.0419652
-0.0109664
0.0460101
0.171
-0.0696451
-0.0486595
-0.0441307
-0.0444014
-0.048257
-0.0507353
-0.0454381
-0.0131364
0.0470647
0.17648
-0.0678911
-0.047145
-0.0429981
-0.0439364
-0.0485703
-0.0517331
-0.0467729
-0.0139193
0.0476396
0.178841
-0.0678911
-0.047145
-0.0429981
-0.0439364
-0.0485703
-0.0517332
-0.0467729
-0.0139193
0.0476395
0.178841
-0.0696452
-0.0486595
-0.0441307
-0.0444014
-0.048257
-0.0507354
-0.0454381
-0.0131365
0.0470645
0.17648
-0.0735114
-0.051814
-0.0464307
-0.045214
-0.0473063
-0.0481875
-0.0419654
-0.0109666
0.04601
0.171
-0.0798413
-0.0564318
-0.0494756
-0.0458314
-0.045034
-0.0431822
-0.0347551
-0.00529722
0.0453633
0.16226
-0.0875996
-0.0601465
-0.0507771
-0.0447202
-0.0416435
-0.0370686
-0.0248585
0.0056059
0.0519734
0.150861
-0.198183
-0.0731891
-0.0480478
-0.0391763
-0.034516
-0.0277056
-0.0110643
0.0335681
0.119156
0.324446
-0.18602
-0.0608061
-0.0405629
-0.0359774
-0.0348334
-0.0312708
-0.0171449
0.0301687
0.129348
0.358751
-0.177351
-0.0522479
-0.0342438
-0.0326247
-0.0346063
-0.0334891
-0.0204314
0.0298932
0.138353
0.379338
-0.1724
-0.0474146
-0.0303622
-0.0304066
-0.0342467
-0.0345356
-0.021906
0.0300485
0.142695
0.389183
-0.170239
-0.0453179
-0.0286371
-0.0293911
-0.0340534
-0.0349886
-0.0225433
0.0300758
0.144334
0.392905
-0.170239
-0.0453179
-0.0286371
-0.0293911
-0.0340534
-0.0349886
-0.0225433
0.0300758
0.144334
0.392905
-0.1724
-0.0474146
-0.0303622
-0.0304066
-0.0342468
-0.0345357
-0.0219061
0.0300484
0.142695
0.389183
-0.177351
-0.0522479
-0.0342438
-0.0326248
-0.0346064
-0.0334892
-0.0204315
0.029893
0.138353
0.379337
-0.18602
-0.0608061
-0.040563
-0.0359775
-0.0348335
-0.031271
-0.0171451
0.0301685
0.129347
0.358751
-0.198183
-0.073189
-0.0480479
-0.0391764
-0.0345161
-0.0277058
-0.0110645
0.0335679
0.119156
0.324446
)
;

boundaryField
{
    top
    {
        type            zeroGradient;
    }
    others
    {
        type            zeroGradient;
    }
}


// ************************************************************************* //
