/*--------------------------------*- C++ -*----------------------------------*\
  =========                 |
  \\      /  F ield         | OpenFOAM: The Open Source CFD Toolbox
   \\    /   O peration     | Website:  https://openfoam.org
    \\  /    A nd           | Version:  9
     \\/     M anipulation  |
\*---------------------------------------------------------------------------*/
FoamFile
{
    format      ascii;
    class       volScalarField;
    location    "0.85";
    object      p;
}
// * * * * * * * * * * * * * * * * * * * * * * * * * * * * * * * * * * * * * //

dimensions      [0 2 -2 0 0 0 0];

internalField   nonuniform List<scalar> 
1000
(
-2.15511e-06
-0.000494968
-0.000188533
0.000868558
0.00275287
0.00533799
0.00816214
0.0104606
0.0115292
0.0106711
0.00016874
-0.00074
-0.00054204
0.000561389
0.00262932
0.00551562
0.00868326
0.0112006
0.012211
0.0108014
0.000956396
-0.000230484
-7.15977e-05
0.00113344
0.0034518
0.0067094
0.0102598
0.0129216
0.0136814
0.0115264
0.00180958
0.000436642
0.000581616
0.00188837
0.00443592
0.00803369
0.0118502
0.0145656
0.0150617
0.0123109
0.00234599
0.000884874
0.00102869
0.00239583
0.00506945
0.00884121
0.0128037
0.0155284
0.0158656
0.0127987
0.00234602
0.00088489
0.00102871
0.00239585
0.00506946
0.00884122
0.0128037
0.0155284
0.0158656
0.0127987
0.00180964
0.000436692
0.000581671
0.0018884
0.00443596
0.00803372
0.0118502
0.0145656
0.0150617
0.0123109
0.000956527
-0.000230384
-7.15066e-05
0.0011335
0.00345186
0.00670944
0.0102598
0.0129216
0.0136814
0.0115264
0.000168995
-0.000739827
-0.000541916
0.000561466
0.00262938
0.00551566
0.00868329
0.0112006
0.012211
0.0108014
-1.80596e-06
-0.000494731
-0.000188389
0.000868645
0.00275294
0.00533804
0.00816218
0.0104606
0.0115292
0.0106711
0.000410491
-2.48733e-05
0.000300363
0.00122535
0.00285656
0.00514754
0.00773299
0.00994279
0.0110323
0.00988727
0.000950631
2.32141e-05
0.000265799
0.00118269
0.0028508
0.00523735
0.00796746
0.0103038
0.0113535
0.00955273
0.00218018
0.000839068
0.00101067
0.00192204
0.00365839
0.00619382
0.00915869
0.0115727
0.0124152
0.00986056
0.00335052
0.00169108
0.00179811
0.00270623
0.00451572
0.00721914
0.0103556
0.0127989
0.0134317
0.0103245
0.00404836
0.00221867
0.00228906
0.0031952
0.00504623
0.00785087
0.011074
0.0135188
0.014027
0.010646
0.00404838
0.00221869
0.00228907
0.00319522
0.00504624
0.00785087
0.011074
0.0135188
0.014027
0.010646
0.00335058
0.00169112
0.00179816
0.00270626
0.00451575
0.00721916
0.0103556
0.0127989
0.0134317
0.0103245
0.0021803
0.000839156
0.00101075
0.0019221
0.00365844
0.00619385
0.00915872
0.0115728
0.0124153
0.00986057
0.000950822
2.33559e-05
0.000265906
0.00118276
0.00285085
0.00523738
0.00796749
0.0103038
0.0113535
0.00955276
0.000410748
-2.46851e-05
0.000300488
0.00122543
0.00285663
0.00514759
0.00773303
0.00994281
0.0110324
0.00988731
-0.000939291
-0.00150884
-0.00130829
-0.000592176
0.000856147
0.00316621
0.00611867
0.00902554
0.0107903
0.00947839
-7.5303e-05
-0.00130545
-0.00119067
-0.000477043
0.00101259
0.00344427
0.00659588
0.00967552
0.0113663
0.00890484
0.00167823
-0.000147986
-0.000166634
0.000448235
0.00190939
0.00444237
0.00781249
0.0110235
0.0125151
0.00900437
0.00327955
0.000995217
0.000846124
0.00136297
0.0028041
0.00544124
0.00894389
0.0122035
0.0134926
0.00927982
0.00421257
0.00168339
0.00145736
0.00191641
0.00334693
0.00603167
0.00959744
0.0128615
0.0140312
0.00949254
0.00421259
0.00168341
0.00145737
0.00191642
0.00334694
0.00603167
0.00959745
0.0128615
0.0140312
0.00949254
0.0032796
0.000995262
0.000846173
0.001363
0.00280413
0.00544126
0.0089439
0.0122035
0.0134926
0.00927983
0.00167832
-0.000147911
-0.000166562
0.000448289
0.00190943
0.0044424
0.00781252
0.0110236
0.0125152
0.00900439
-7.51804e-05
-0.00130535
-0.00119058
-0.000476978
0.00101264
0.00344431
0.00659591
0.00967554
0.0113663
0.00890488
-0.00093915
-0.00150871
-0.0013082
-0.000592103
0.000856203
0.00316625
0.0061187
0.00902556
0.0107904
0.00947842
-0.00444531
-0.00514266
-0.0051219
-0.00469017
-0.00344557
-0.000950263
0.00285828
0.0073556
0.0108249
0.00992792
-0.00325934
-0.0047678
-0.00483515
-0.00438775
-0.00306907
-0.000394325
0.0037182
0.00854892
0.011948
0.0093124
-0.000976067
-0.00326189
-0.00357212
-0.00338175
-0.00225995
0.000426995
0.00469143
0.00978512
0.0131182
0.00930893
0.00106728
-0.00181354
-0.00236206
-0.0024263
-0.00150182
0.00110873
0.00549443
0.0107142
0.0139458
0.00944147
0.00224276
-0.000954543
-0.00164338
-0.00185584
-0.00103982
0.00153056
0.00593225
0.0111833
0.0143513
0.00955525
0.00224277
-0.000954531
-0.00164337
-0.00185583
-0.00103981
0.00153056
0.00593225
0.0111833
0.0143513
0.00955525
0.00106732
-0.0018135
-0.00236202
-0.00242627
-0.0015018
0.00110874
0.00549444
0.0107142
0.0139458
0.00944147
-0.000975997
-0.00326183
-0.00357206
-0.00338171
-0.00225992
0.00042702
0.00469146
0.00978515
0.0131182
0.00930895
-0.00325926
-0.00476772
-0.00483508
-0.0043877
-0.00306903
-0.000394295
0.00371822
0.00854892
0.011948
0.00931241
-0.00444522
-0.00514256
-0.00512183
-0.0046901
-0.00344552
-0.000950228
0.0028583
0.00735561
0.0108249
0.00992793
-0.0107893
-0.0114417
-0.0115214
-0.0113852
-0.0104032
-0.00764311
-0.00247767
0.0047821
0.0116128
0.0128137
-0.0093266
-0.0109136
-0.0111019
-0.0109684
-0.00992066
-0.00703777
-0.00157045
0.00624401
0.0132432
0.0125871
-0.00663123
-0.00916013
-0.00976974
-0.0101661
-0.00965926
-0.00710256
-0.00164766
0.00660791
0.0139306
0.0125907
-0.00426338
-0.00750483
-0.00851162
-0.00940025
-0.00936458
-0.00709231
-0.00173401
0.00673976
0.0142529
0.0126403
-0.00291813
-0.00653503
-0.00777
-0.00893264
-0.00915172
-0.00706956
-0.00176559
0.00677262
0.0143554
0.0126692
-0.00291812
-0.00653502
-0.00776999
-0.00893263
-0.00915172
-0.00706956
-0.00176559
0.00677262
0.0143554
0.0126692
-0.00426335
-0.0075048
-0.00851159
-0.00940022
-0.00936456
-0.0070923
-0.00173401
0.00673976
0.0142529
0.0126403
-0.00663117
-0.00916008
-0.0097697
-0.0101661
-0.00965923
-0.00710254
-0.00164763
0.00660794
0.0139306
0.0125907
-0.00932654
-0.0109136
-0.0111018
-0.0109684
-0.00992062
-0.00703774
-0.00157043
0.006244
0.0132432
0.0125871
-0.0107893
-0.0114416
-0.0115214
-0.0113851
-0.0104032
-0.00764308
-0.00247765
0.0047821
0.0116128
0.0128138
-0.0205887
-0.0206567
-0.0204657
-0.020467
-0.0197263
-0.0167261
-0.00981794
0.00152575
0.0143699
0.0210326
-0.018883
-0.0200298
-0.0200315
-0.0201641
-0.019621
-0.0168979
-0.0101706
0.00169671
0.0151935
0.0213862
-0.0159158
-0.0181493
-0.0188258
-0.0198966
-0.0204171
-0.0186503
-0.0124246
-3.49492e-05
0.0145512
0.0213979
-0.0133735
-0.0164021
-0.0176697
-0.0195327
-0.0208928
-0.0198524
-0.0139941
-0.00135426
0.0138784
0.021311
-0.0119527
-0.0153924
-0.0169866
-0.0192656
-0.0210404
-0.0203155
-0.0146919
-0.00199232
0.0135061
0.0212334
-0.0119527
-0.0153924
-0.0169866
-0.0192656
-0.0210404
-0.0203155
-0.014692
-0.00199232
0.0135061
0.0212334
-0.0133735
-0.0164021
-0.0176697
-0.0195327
-0.0208928
-0.0198523
-0.0139941
-0.00135426
0.0138784
0.021311
-0.0159158
-0.0181493
-0.0188258
-0.0198965
-0.0204171
-0.0186503
-0.0124246
-3.4944e-05
0.0145512
0.0213979
-0.018883
-0.0200297
-0.0200315
-0.0201641
-0.019621
-0.0168978
-0.0101705
0.00169672
0.0151935
0.0213862
-0.0205887
-0.0206567
-0.0204657
-0.0204669
-0.0197262
-0.0167261
-0.00981791
0.00152576
0.0143699
0.0210327
-0.0349141
-0.0326591
-0.0312008
-0.0307923
-0.0301444
-0.0269972
-0.0184387
-0.0018178
0.0201322
0.0388656
-0.0327668
-0.0318841
-0.0308549
-0.0309491
-0.031062
-0.0290658
-0.0217677
-0.00533336
0.0177863
0.0389746
-0.029509
-0.0298106
-0.0297567
-0.031283
-0.0331321
-0.0329524
-0.0269845
-0.010243
0.014709
0.0388148
-0.0268494
-0.0279619
-0.0286727
-0.0312762
-0.0343325
-0.0353096
-0.0301254
-0.0132054
0.0127899
0.0386753
-0.0254034
-0.0269232
-0.0280378
-0.0311691
-0.0347762
-0.0362548
-0.0314179
-0.0144561
0.0119576
0.0385932
-0.0254034
-0.0269232
-0.0280378
-0.0311691
-0.0347762
-0.0362548
-0.0314179
-0.0144561
0.0119576
0.0385932
-0.0268494
-0.0279618
-0.0286727
-0.0312762
-0.0343325
-0.0353096
-0.0301254
-0.0132054
0.0127899
0.0386753
-0.029509
-0.0298106
-0.0297566
-0.031283
-0.0331321
-0.0329524
-0.0269845
-0.010243
0.0147089
0.0388148
-0.0327667
-0.031884
-0.0308549
-0.0309491
-0.031062
-0.0290657
-0.0217677
-0.00533337
0.0177863
0.0389746
-0.034914
-0.032659
-0.0312008
-0.0307923
-0.0301443
-0.0269972
-0.0184387
-0.00181782
0.0201322
0.0388656
-0.0575681
-0.0470123
-0.042229
-0.0401517
-0.0390399
-0.0355332
-0.0256693
-0.00313216
0.0302797
0.0731908
-0.0542987
-0.0455424
-0.0416255
-0.0408321
-0.041308
-0.0400474
-0.0331277
-0.0121341
0.0225107
0.0736539
-0.0501345
-0.042615
-0.0398835
-0.0410842
-0.0439483
-0.0451294
-0.0402965
-0.0192086
0.0177936
0.0750998
-0.0470412
-0.0402802
-0.0383757
-0.0408662
-0.0452202
-0.0477752
-0.0440068
-0.022609
0.0158129
0.0764609
-0.0454548
-0.0390581
-0.0375729
-0.0406537
-0.045634
-0.0487286
-0.0454007
-0.0238511
0.0151815
0.0771201
-0.0454547
-0.0390581
-0.0375729
-0.0406537
-0.045634
-0.0487286
-0.0454007
-0.0238511
0.0151815
0.0771201
-0.0470411
-0.0402802
-0.0383756
-0.0408662
-0.0452202
-0.0477752
-0.0440068
-0.022609
0.0158129
0.0764609
-0.0501345
-0.042615
-0.0398835
-0.0410842
-0.0439483
-0.0451294
-0.0402965
-0.0192086
0.0177936
0.0750998
-0.0542987
-0.0455424
-0.0416255
-0.0408321
-0.041308
-0.0400473
-0.0331277
-0.0121341
0.0225107
0.0736539
-0.0575681
-0.0470123
-0.0422289
-0.0401517
-0.0390399
-0.0355332
-0.0256693
-0.00313216
0.0302797
0.0731909
-0.0890755
-0.0612408
-0.0519773
-0.0463561
-0.0436248
-0.0390517
-0.0263713
0.00465985
0.0516412
0.150869
-0.0814034
-0.0572687
-0.0505524
-0.0473563
-0.0470015
-0.0451682
-0.0362106
-0.00612508
0.0452745
0.162518
-0.0749902
-0.0524378
-0.0472833
-0.0466197
-0.0492005
-0.0500228
-0.0431331
-0.0114157
0.046333
0.171588
-0.0709908
-0.0491362
-0.044875
-0.0457365
-0.0500175
-0.0523055
-0.0462363
-0.0132247
0.0476447
0.177302
-0.0691432
-0.047556
-0.0437153
-0.0452507
-0.0502353
-0.0531052
-0.0473234
-0.0137915
0.0483667
0.179785
-0.0691432
-0.0475559
-0.0437153
-0.0452507
-0.0502353
-0.0531052
-0.0473234
-0.0137915
0.0483667
0.179785
-0.0709908
-0.0491362
-0.044875
-0.0457365
-0.0500175
-0.0523055
-0.0462363
-0.0132247
0.0476447
0.177302
-0.0749902
-0.0524378
-0.0472833
-0.0466197
-0.0492005
-0.0500228
-0.0431331
-0.0114157
0.046333
0.171588
-0.0814034
-0.0572687
-0.0505524
-0.0473562
-0.0470015
-0.0451682
-0.0362106
-0.00612508
0.0452745
0.162518
-0.0890755
-0.0612408
-0.0519773
-0.0463561
-0.0436248
-0.0390517
-0.0263713
0.00465985
0.0516412
0.150869
-0.199314
-0.0738999
-0.0488889
-0.0404288
-0.0361412
-0.0293837
-0.0124697
0.0327703
0.119017
0.324653
-0.187005
-0.0611517
-0.0410627
-0.0370323
-0.0364162
-0.0329933
-0.0184756
0.0296003
0.129528
0.359296
-0.17809
-0.0522025
-0.0343847
-0.0334465
-0.0360296
-0.0349895
-0.0214547
0.0297187
0.138857
0.380171
-0.172939
-0.0471336
-0.0303395
-0.0311259
-0.0355426
-0.0358158
-0.0226043
0.0302082
0.143486
0.390207
-0.170676
-0.0449528
-0.0285858
-0.030099
-0.0352876
-0.0361196
-0.0230404
0.0304231
0.145252
0.394031
-0.170676
-0.0449528
-0.0285858
-0.030099
-0.0352876
-0.0361196
-0.0230404
0.0304231
0.145252
0.394031
-0.172939
-0.0471336
-0.0303395
-0.0311259
-0.0355426
-0.0358158
-0.0226043
0.0302082
0.143486
0.390207
-0.17809
-0.0522025
-0.0343847
-0.0334465
-0.0360296
-0.0349895
-0.0214547
0.0297187
0.138857
0.380171
-0.187005
-0.0611517
-0.0410627
-0.0370323
-0.0364162
-0.0329934
-0.0184756
0.0296003
0.129528
0.359296
-0.199314
-0.0738999
-0.0488889
-0.0404288
-0.0361412
-0.0293837
-0.0124697
0.0327703
0.119017
0.324653
)
;

boundaryField
{
    top
    {
        type            zeroGradient;
    }
    others
    {
        type            zeroGradient;
    }
}


// ************************************************************************* //
