/*--------------------------------*- C++ -*----------------------------------*\
  =========                 |
  \\      /  F ield         | OpenFOAM: The Open Source CFD Toolbox
   \\    /   O peration     | Website:  https://openfoam.org
    \\  /    A nd           | Version:  9
     \\/     M anipulation  |
\*---------------------------------------------------------------------------*/
FoamFile
{
    format      ascii;
    class       surfaceScalarField;
    location    "0.85";
    object      phi;
}
// * * * * * * * * * * * * * * * * * * * * * * * * * * * * * * * * * * * * * //

dimensions      [0 3 -1 0 0 0 0];

internalField   nonuniform List<scalar> 
2700
(
-5.67586e-08
-1.09963e-07
1.66781e-07
-2.99753e-07
-1.24204e-07
3.67199e-07
-6.24816e-07
-1.2489e-07
4.49953e-07
-9.46896e-07
-1.46162e-07
4.68242e-07
-1.17554e-06
-1.99137e-07
4.27783e-07
-1.2104e-06
-2.78047e-07
3.12902e-07
-9.84328e-07
-3.54521e-07
1.28452e-07
-5.41276e-07
-3.7793e-07
-6.5122e-08
-1.02842e-07
-3.01427e-07
-1.37006e-07
-9.98166e-08
-3.02608e-09
-1.56333e-07
-2.40219e-07
2.8659e-07
-6.86372e-07
-3.2072e-07
7.26554e-07
-1.36054e-06
-3.42327e-07
8.91605e-07
-1.99445e-06
-3.82937e-07
8.70686e-07
-2.41281e-06
-4.66459e-07
6.85675e-07
-2.43737e-06
-5.8121e-07
3.27724e-07
-1.95887e-06
-6.78986e-07
-1.54031e-07
-1.08189e-06
-6.85052e-07
-5.69856e-07
-2.33484e-07
-5.41642e-07
-6.08195e-07
-2.19467e-07
-1.13834e-07
-2.36898e-07
-2.6309e-07
2.59769e-07
-9.65747e-07
-3.75438e-07
7.83567e-07
-1.86657e-06
-4.09015e-07
9.67515e-07
-2.68786e-06
-4.5064e-07
8.88991e-07
-3.19955e-06
-5.27133e-07
5.72362e-07
-3.17995e-06
-6.27919e-07
2.71049e-08
-2.5005e-06
-6.99744e-07
-6.58694e-07
-1.32768e-06
-6.85501e-07
-1.17236e-06
-2.48906e-07
-5.40494e-07
-1.07993e-06
-2.37908e-07
-2.30466e-07
-2.93103e-07
-1.67147e-07
1.9716e-07
-1.15507e-06
-2.45414e-07
7.31939e-07
-2.20301e-06
-2.695e-07
9.08425e-07
-3.13894e-06
-2.94814e-07
7.80107e-07
-3.69742e-06
-3.38137e-07
3.6948e-07
-3.61959e-06
-3.92415e-07
-3.13336e-07
-2.79011e-06
-4.28819e-07
-1.10041e-06
-1.42175e-06
-4.1392e-07
-1.63994e-06
-2.19937e-07
-3.26279e-07
-1.41603e-06
-1.49345e-07
-3.08499e-07
-3.22548e-07
1.28107e-12
1.55399e-07
-1.25189e-06
1.2747e-12
6.8393e-07
-2.37281e-06
8.13481e-13
8.51414e-07
-3.36285e-06
5.29303e-13
6.9523e-07
-3.93793e-06
3.11054e-13
2.36939e-07
-3.82559e-06
1.94967e-13
-5.04751e-07
-2.9143e-06
1.43244e-13
-1.34011e-06
-1.44894e-06
1.236e-13
-1.87928e-06
-1.95279e-07
1.04918e-13
-1.57994e-06
7.61032e-14
-3.44625e-07
-3.22548e-07
1.6715e-07
1.55399e-07
-1.25189e-06
2.45417e-07
6.8393e-07
-2.37281e-06
2.69502e-07
8.51414e-07
-3.36285e-06
2.94815e-07
6.9523e-07
-3.93793e-06
3.38137e-07
2.36939e-07
-3.82559e-06
3.92415e-07
-5.04751e-07
-2.9143e-06
4.28819e-07
-1.34011e-06
-1.44894e-06
4.13921e-07
-1.87928e-06
-1.95279e-07
3.26279e-07
-1.57994e-06
1.49345e-07
-3.44625e-07
-2.93104e-07
2.63095e-07
1.97159e-07
-1.15507e-06
3.75441e-07
7.31938e-07
-2.20301e-06
4.09017e-07
9.08424e-07
-3.13894e-06
4.50642e-07
7.80106e-07
-3.69742e-06
5.27134e-07
3.6948e-07
-3.61959e-06
6.27919e-07
-3.13336e-07
-2.79011e-06
6.99744e-07
-1.10041e-06
-1.42175e-06
6.85501e-07
-1.63994e-06
-2.19937e-07
5.40494e-07
-1.41603e-06
2.37908e-07
-3.08499e-07
-2.36901e-07
2.4023e-07
2.59766e-07
-9.6575e-07
3.20725e-07
7.83565e-07
-1.86658e-06
3.42329e-07
9.67514e-07
-2.68786e-06
3.82938e-07
8.8899e-07
-3.19955e-06
4.6646e-07
5.72362e-07
-3.17995e-06
5.81211e-07
2.7105e-08
-2.5005e-06
6.78986e-07
-6.58694e-07
-1.32768e-06
6.85052e-07
-1.17236e-06
-2.48906e-07
5.41643e-07
-1.07993e-06
2.19467e-07
-2.30466e-07
-1.56339e-07
1.09986e-07
2.86583e-07
-6.86377e-07
1.2421e-07
7.26552e-07
-1.36054e-06
1.24892e-07
8.91603e-07
-1.99445e-06
1.46163e-07
8.70686e-07
-2.41281e-06
1.99137e-07
6.85675e-07
-2.43737e-06
2.78048e-07
3.27724e-07
-1.95887e-06
3.54522e-07
-1.54031e-07
-1.08189e-06
3.7793e-07
-5.69856e-07
-2.33484e-07
3.01428e-07
-6.08195e-07
9.98167e-08
-1.13834e-07
-5.67763e-08
1.66761e-07
-2.99761e-07
3.67193e-07
-6.2482e-07
4.49951e-07
-9.46898e-07
4.68241e-07
-1.17554e-06
4.27783e-07
-1.2104e-06
3.12901e-07
-9.84328e-07
1.28452e-07
-5.41276e-07
-6.51221e-08
-1.02842e-07
-1.37006e-07
-3.02596e-09
-2.1731e-07
-2.87416e-07
6.71507e-07
-7.17419e-07
-3.8601e-07
1.25332e-06
-1.32348e-06
-4.01038e-07
1.45705e-06
-1.90367e-06
-4.06997e-07
1.45543e-06
-2.31044e-06
-4.36124e-07
1.27068e-06
-2.37997e-06
-4.91398e-07
8.73831e-07
-1.99568e-06
-5.44476e-07
2.88634e-07
-1.20015e-06
-5.36398e-07
-3.24257e-07
-3.31318e-07
-3.985e-07
-6.07336e-07
-8.70867e-08
-2.47258e-07
-6.01167e-07
-5.27741e-07
1.12808e-06
-1.82638e-06
-7.68168e-07
2.33392e-06
-3.23501e-06
-8.12425e-07
2.71162e-06
-4.49458e-06
-8.22697e-07
2.54596e-06
-5.28871e-06
-8.63398e-07
1.90708e-06
-5.31724e-06
-9.36807e-07
8.01667e-07
-4.399e-06
-9.98638e-07
-6.1811e-07
-2.66957e-06
-9.54861e-07
-1.88082e-06
-8.22386e-07
-7.21294e-07
-2.13259e-06
-2.36573e-07
-7.86734e-07
-9.00785e-07
-5.39239e-07
1.17205e-06
-2.65833e-06
-8.18188e-07
2.59113e-06
-4.61184e-06
-8.73148e-07
2.98174e-06
-6.28129e-06
-8.8129e-07
2.61703e-06
-7.24645e-06
-9.11956e-07
1.58608e-06
-7.15945e-06
-9.67823e-07
-2.88808e-08
-5.81411e-06
-9.98251e-07
-2.00442e-06
-3.46065e-06
-9.35795e-07
-3.54489e-06
-1.03844e-06
-7.14974e-07
-3.50846e-06
-2.75672e-07
-1.2298e-06
-1.10249e-06
-3.32285e-07
1.0927e-06
-3.21733e-06
-5.14267e-07
2.54285e-06
-5.51826e-06
-5.5089e-07
2.8871e-06
-7.42251e-06
-5.54151e-07
2.35721e-06
-8.45231e-06
-5.67558e-07
1.05489e-06
-8.2323e-06
-5.93191e-07
-9.07984e-07
-6.58192e-06
-6.00189e-07
-3.14885e-06
-3.83752e-06
-5.56357e-07
-4.76377e-06
-1.1034e-06
-4.28458e-07
-4.43666e-06
-1.77851e-07
-1.50972e-06
-1.20382e-06
1.16943e-12
1.02693e-06
-3.49836e-06
1.28696e-12
2.4642e-06
-5.96841e-06
9.14249e-13
2.77057e-06
-7.97755e-06
6.6502e-13
2.15022e-06
-9.02353e-06
4.63327e-13
7.1536e-07
-8.71972e-06
3.40297e-13
-1.40176e-06
-6.91125e-06
2.65391e-13
-3.74877e-06
-3.98118e-06
2.15243e-13
-5.36571e-06
-1.11426e-06
1.64646e-13
-4.87531e-06
1.2067e-13
-1.63674e-06
-1.20382e-06
3.32288e-07
1.02693e-06
-3.49836e-06
5.1427e-07
2.4642e-06
-5.96841e-06
5.50892e-07
2.77057e-06
-7.97755e-06
5.54152e-07
2.15022e-06
-9.02353e-06
5.67559e-07
7.1536e-07
-8.71972e-06
5.93191e-07
-1.40176e-06
-6.91125e-06
6.00189e-07
-3.74877e-06
-3.98118e-06
5.56358e-07
-5.36571e-06
-1.11426e-06
4.28458e-07
-4.87531e-06
1.77851e-07
-1.63674e-06
-1.10249e-06
5.39242e-07
1.09269e-06
-3.21733e-06
8.18191e-07
2.54285e-06
-5.51826e-06
8.7315e-07
2.8871e-06
-7.42251e-06
8.81291e-07
2.35721e-06
-8.45231e-06
9.11957e-07
1.05489e-06
-8.2323e-06
9.67824e-07
-9.07984e-07
-6.58192e-06
9.98252e-07
-3.14885e-06
-3.83752e-06
9.35796e-07
-4.76377e-06
-1.1034e-06
7.14974e-07
-4.43666e-06
2.75672e-07
-1.50972e-06
-9.00786e-07
5.27746e-07
1.17205e-06
-2.65834e-06
7.68171e-07
2.59113e-06
-4.61184e-06
8.12427e-07
2.98174e-06
-6.28129e-06
8.22698e-07
2.61703e-06
-7.24645e-06
8.63399e-07
1.58608e-06
-7.15945e-06
9.36808e-07
-2.88811e-08
-5.81411e-06
9.98638e-07
-2.00442e-06
-3.46065e-06
9.54862e-07
-3.54489e-06
-1.03844e-06
7.21294e-07
-3.50846e-06
2.36573e-07
-1.2298e-06
-6.0117e-07
2.87422e-07
1.12808e-06
-1.82638e-06
3.86013e-07
2.33392e-06
-3.23501e-06
4.0104e-07
2.71162e-06
-4.49458e-06
4.06998e-07
2.54596e-06
-5.28871e-06
4.36124e-07
1.90708e-06
-5.31724e-06
4.91398e-07
8.01667e-07
-4.399e-06
5.44476e-07
-6.1811e-07
-2.66957e-06
5.36398e-07
-1.88082e-06
-8.22386e-07
3.98499e-07
-2.13259e-06
8.70865e-08
-7.86734e-07
-2.17315e-07
6.71498e-07
-7.17424e-07
1.25331e-06
-1.32348e-06
1.45704e-06
-1.90367e-06
1.45543e-06
-2.31044e-06
1.27068e-06
-2.37997e-06
8.7383e-07
-1.99568e-06
2.88633e-07
-1.20015e-06
-3.24257e-07
-3.31318e-07
-6.07336e-07
-2.47258e-07
-3.30212e-07
-4.37418e-07
1.43914e-06
-1.00022e-06
-5.89498e-07
2.51283e-06
-1.78605e-06
-5.88853e-07
2.83172e-06
-2.55505e-06
-5.41228e-07
2.76566e-06
-3.15107e-06
-5.04195e-07
2.3709e-06
-3.36729e-06
-5.03207e-07
1.59326e-06
-2.99886e-06
-5.26479e-07
4.46679e-07
-1.98443e-06
-5.23511e-07
-8.15168e-07
-6.74483e-07
-3.95294e-07
-1.52199e-06
-4.04236e-08
-8.81317e-07
-9.58502e-07
-7.648e-07
2.41396e-06
-2.70707e-06
-1.10287e-06
4.59586e-06
-4.64108e-06
-1.10706e-06
5.16384e-06
-6.37143e-06
-1.00527e-06
4.74035e-06
-7.54042e-06
-9.0938e-07
3.48125e-06
-7.77165e-06
-8.60665e-07
1.39035e-06
-6.74249e-06
-8.46507e-07
-1.32724e-06
-4.43357e-06
-8.06766e-07
-3.90649e-06
-1.58933e-06
-6.24573e-07
-4.74754e-06
-1.55546e-07
-2.26094e-06
-1.46232e-06
-7.58692e-07
2.62826e-06
-4.03013e-06
-1.13303e-06
5.18911e-06
-6.75822e-06
-1.13838e-06
5.74116e-06
-9.05763e-06
-1.02095e-06
4.93212e-06
-1.0454e-05
-8.98878e-07
2.97195e-06
-1.05249e-05
-8.1338e-07
-5.24709e-09
-8.93971e-06
-7.55311e-07
-3.68083e-06
-5.77214e-06
-6.99375e-07
-6.81985e-06
-2.03333e-06
-5.57113e-07
-7.31472e-06
-1.90761e-07
-3.22792e-06
-1.8045e-06
-4.59611e-07
2.59811e-06
-4.92108e-06
-6.98019e-07
5.22443e-06
-8.14416e-06
-7.00572e-07
5.67236e-06
-1.07458e-05
-6.22042e-07
4.55994e-06
-1.2197e-05
-5.36158e-07
2.14335e-06
-1.20706e-05
-4.6753e-07
-1.38025e-06
-1.00923e-05
-4.18622e-07
-5.46382e-06
-6.41379e-06
-3.81864e-07
-8.75977e-06
-2.20778e-06
-3.11888e-07
-8.88789e-06
-1.23622e-07
-3.78464e-06
-1.97588e-06
7.35857e-13
2.5432e-06
-5.36547e-06
9.39296e-13
5.15577e-06
-8.8228e-06
6.96249e-13
5.52733e-06
-1.15488e-05
5.33367e-13
4.25419e-06
-1.29934e-05
3.86661e-13
1.62377e-06
-1.27452e-05
2.85306e-13
-2.1175e-06
-1.05679e-05
2.29208e-13
-6.34469e-06
-6.65973e-06
1.9492e-13
-9.65571e-06
-2.26271e-06
1.63935e-13
-9.58421e-06
1.25405e-13
-4.02307e-06
-1.97588e-06
4.59613e-07
2.5432e-06
-5.36547e-06
6.98021e-07
5.15577e-06
-8.8228e-06
7.00573e-07
5.52733e-06
-1.15488e-05
6.22044e-07
4.25419e-06
-1.29934e-05
5.36159e-07
1.62377e-06
-1.27452e-05
4.6753e-07
-2.1175e-06
-1.05679e-05
4.18622e-07
-6.34469e-06
-6.65973e-06
3.81864e-07
-9.65571e-06
-2.26271e-06
3.11888e-07
-9.58421e-06
1.23623e-07
-4.02307e-06
-1.8045e-06
7.58694e-07
2.59811e-06
-4.92108e-06
1.13303e-06
5.22443e-06
-8.14416e-06
1.13839e-06
5.67236e-06
-1.07458e-05
1.02095e-06
4.55994e-06
-1.2197e-05
8.98879e-07
2.14335e-06
-1.20706e-05
8.13381e-07
-1.38025e-06
-1.00923e-05
7.55311e-07
-5.46382e-06
-6.41379e-06
6.99376e-07
-8.75977e-06
-2.20778e-06
5.57113e-07
-8.88789e-06
1.90761e-07
-3.78464e-06
-1.46232e-06
7.64802e-07
2.62826e-06
-4.03013e-06
1.10287e-06
5.18911e-06
-6.75822e-06
1.10706e-06
5.74116e-06
-9.05763e-06
1.00527e-06
4.93212e-06
-1.0454e-05
9.0938e-07
2.97195e-06
-1.05249e-05
8.60665e-07
-5.24743e-09
-8.93971e-06
8.46507e-07
-3.68083e-06
-5.77214e-06
8.06766e-07
-6.81985e-06
-2.03333e-06
6.24573e-07
-7.31472e-06
1.55546e-07
-3.22792e-06
-9.58504e-07
4.37421e-07
2.41396e-06
-2.70707e-06
5.89499e-07
4.59586e-06
-4.64108e-06
5.88853e-07
5.16383e-06
-6.37143e-06
5.41229e-07
4.74034e-06
-7.54042e-06
5.04195e-07
3.48125e-06
-7.77165e-06
5.03207e-07
1.39035e-06
-6.74249e-06
5.26479e-07
-1.32724e-06
-4.43357e-06
5.23511e-07
-3.90649e-06
-1.58933e-06
3.95294e-07
-4.74754e-06
4.04236e-08
-2.26094e-06
-3.30214e-07
1.43913e-06
-1.00023e-06
2.51282e-06
-1.78605e-06
2.83172e-06
-2.55505e-06
2.76566e-06
-3.15107e-06
2.3709e-06
-3.36729e-06
1.59326e-06
-2.99886e-06
4.46679e-07
-1.98443e-06
-8.15168e-07
-6.74483e-07
-1.52199e-06
-8.81317e-07
-4.11719e-07
-5.66785e-07
2.41764e-06
-1.19341e-06
-7.40451e-07
4.03497e-06
-2.10406e-06
-6.82814e-07
4.42519e-06
-3.05215e-06
-5.30294e-07
4.24404e-06
-3.91184e-06
-3.73533e-07
3.60412e-06
-4.44291e-06
-2.73061e-07
2.39738e-06
-4.30129e-06
-2.53561e-07
5.58624e-07
-3.18809e-06
-3.06794e-07
-1.62158e-06
-1.31268e-06
-2.9488e-07
-3.10252e-06
1.16344e-09
-2.19516e-06
-1.23432e-06
-9.65321e-07
4.04682e-06
-3.37071e-06
-1.3404e-06
7.3322e-06
-5.69965e-06
-1.22413e-06
8.03409e-06
-7.85698e-06
-9.06076e-07
7.27346e-06
-9.51642e-06
-5.59778e-07
5.32694e-06
-1.02446e-05
-2.9968e-07
2.14518e-06
-9.49833e-06
-1.85917e-07
-2.14118e-06
-6.86467e-06
-2.42969e-07
-6.60398e-06
-2.85086e-06
-3.01684e-07
-8.75456e-06
-4.75409e-08
-5.0631e-06
-1.90046e-06
-9.3972e-07
4.50312e-06
-5.07916e-06
-1.34431e-06
8.37171e-06
-8.38264e-06
-1.214e-06
9.03452e-06
-1.12155e-05
-8.58819e-07
7.7177e-06
-1.31484e-05
-4.61809e-07
4.80694e-06
-1.36977e-05
-1.40007e-07
3.84389e-07
-1.23595e-05
1.1963e-08
-5.21695e-06
-8.74968e-06
-4.3175e-08
-1.06295e-05
-3.58057e-06
-1.65601e-07
-1.26199e-05
-6.47348e-08
-6.7913e-06
-2.35088e-06
-5.62354e-07
4.57163e-06
-6.21716e-06
-8.15543e-07
8.56195e-06
-1.01019e-05
-7.29605e-07
9.07271e-06
-1.32491e-05
-4.98851e-07
7.34715e-06
-1.5191e-05
-2.39e-07
3.86251e-06
-1.55035e-05
-2.45226e-08
-1.18325e-06
-1.37336e-05
7.55182e-08
-7.29733e-06
-9.5898e-06
3.82657e-08
-1.2985e-05
-3.87537e-06
-5.77727e-08
-1.47102e-05
-4.09452e-08
-7.6838e-06
-2.57396e-06
4.4417e-13
4.5548e-06
-6.77541e-06
6.64004e-13
8.54168e-06
-1.09226e-05
5.28187e-13
8.94493e-06
-1.41795e-05
4.23743e-13
7.01218e-06
-1.6075e-05
3.13019e-13
3.28032e-06
-1.62315e-05
2.44325e-13
-1.98552e-06
-1.42557e-05
2.03791e-13
-8.24496e-06
-9.89438e-06
1.79974e-13
-1.39788e-05
-3.97651e-06
1.57099e-13
-1.55599e-05
1.1777e-13
-8.04053e-06
-2.57396e-06
5.62355e-07
4.5548e-06
-6.77541e-06
8.15545e-07
8.54168e-06
-1.09226e-05
7.29606e-07
8.94493e-06
-1.41795e-05
4.98852e-07
7.01218e-06
-1.6075e-05
2.39001e-07
3.28032e-06
-1.62315e-05
2.45231e-08
-1.98552e-06
-1.42557e-05
-7.55178e-08
-8.24496e-06
-9.89438e-06
-3.82654e-08
-1.39788e-05
-3.97651e-06
5.77729e-08
-1.55599e-05
4.09454e-08
-8.04053e-06
-2.35088e-06
9.39721e-07
4.57162e-06
-6.21716e-06
1.34431e-06
8.56194e-06
-1.01019e-05
1.214e-06
9.07271e-06
-1.32491e-05
8.5882e-07
7.34715e-06
-1.5191e-05
4.61809e-07
3.86251e-06
-1.55035e-05
1.40007e-07
-1.18325e-06
-1.37336e-05
-1.19628e-08
-7.29733e-06
-9.5898e-06
4.31751e-08
-1.2985e-05
-3.87537e-06
1.65601e-07
-1.47102e-05
6.47349e-08
-7.6838e-06
-1.90046e-06
9.65322e-07
4.50312e-06
-5.07916e-06
1.34041e-06
8.37171e-06
-8.38264e-06
1.22413e-06
9.03452e-06
-1.12155e-05
9.06077e-07
7.7177e-06
-1.31484e-05
5.59778e-07
4.80694e-06
-1.36977e-05
2.9968e-07
3.84388e-07
-1.23595e-05
1.85917e-07
-5.21695e-06
-8.74968e-06
2.4297e-07
-1.06295e-05
-3.58057e-06
3.01684e-07
-1.26199e-05
4.7541e-08
-6.7913e-06
-1.23432e-06
5.66786e-07
4.04682e-06
-3.37071e-06
7.40451e-07
7.33219e-06
-5.69965e-06
6.82814e-07
8.03409e-06
-7.85698e-06
5.30294e-07
7.27346e-06
-9.51642e-06
3.73533e-07
5.32694e-06
-1.02446e-05
2.73061e-07
2.14518e-06
-9.49834e-06
2.53561e-07
-2.14118e-06
-6.86467e-06
3.06794e-07
-6.60398e-06
-2.85086e-06
2.9488e-07
-8.75456e-06
-1.16351e-09
-5.0631e-06
-4.1172e-07
2.41764e-06
-1.19341e-06
4.03496e-06
-2.10406e-06
4.42519e-06
-3.05215e-06
4.24404e-06
-3.91184e-06
3.60412e-06
-4.44291e-06
2.39738e-06
-4.30129e-06
5.58624e-07
-3.18809e-06
-1.62158e-06
-1.31268e-06
-3.10252e-06
-2.19516e-06
-5.00896e-07
-6.64342e-07
3.58288e-06
-1.33585e-06
-8.23005e-07
5.69293e-06
-2.2897e-06
-6.57108e-07
6.03614e-06
-3.37057e-06
-3.33134e-07
5.65805e-06
-4.54418e-06
3.52414e-08
4.74249e-06
-5.57309e-06
3.15473e-07
3.11083e-06
-5.94525e-06
4.13604e-07
5.1718e-07
-4.97663e-06
2.54681e-07
-2.84488e-06
-2.466e-06
7.3519e-09
-5.62051e-06
1.08852e-08
-4.67204e-06
-1.46493e-06
-1.10748e-06
5.95489e-06
-3.83081e-06
-1.45368e-06
1.03288e-05
-6.36338e-06
-1.12692e-06
1.10365e-05
-8.82502e-06
-4.74194e-07
9.87615e-06
-1.10069e-05
2.53559e-07
7.29053e-06
-1.24876e-05
8.35395e-07
3.10598e-06
-1.24851e-05
1.06762e-06
-2.79777e-06
-1.001e-05
7.99554e-07
-9.62388e-06
-4.85935e-06
2.51445e-07
-1.41493e-05
1.42742e-08
-9.92584e-06
-2.22602e-06
-1.06044e-06
6.68209e-06
-5.75968e-06
-1.42885e-06
1.18805e-05
-9.34645e-06
-1.07532e-06
1.25697e-05
-1.24989e-05
-3.71742e-07
1.07677e-05
-1.49256e-05
4.04497e-07
7.08267e-06
-1.61939e-05
1.01578e-06
1.47235e-06
-1.56029e-05
1.24771e-06
-5.98808e-06
-1.21999e-05
9.56162e-07
-1.41891e-05
-5.8512e-06
3.64848e-07
-1.9082e-05
2.08766e-08
-1.26491e-05
-2.72837e-06
-6.27524e-07
6.86708e-06
-7.00875e-06
-8.54935e-07
1.22684e-05
-1.11821e-05
-6.28831e-07
1.27996e-05
-1.45882e-05
-1.83108e-07
1.05646e-05
-1.69338e-05
3.03603e-07
6.30898e-06
-1.7867e-05
6.82155e-07
8.35752e-08
-1.68579e-05
8.05677e-07
-7.86437e-06
-1.30252e-05
6.11482e-07
-1.6473e-05
-6.2219e-06
2.43226e-07
-2.13919e-05
1.63267e-08
-1.39012e-05
-2.97127e-06
2.55942e-13
6.89855e-06
-7.60406e-06
4.46606e-13
1.23195e-05
-1.20236e-05
3.79715e-13
1.27356e-05
-1.54862e-05
3.06507e-13
1.02917e-05
-1.77177e-05
2.18325e-13
5.81541e-06
-1.84571e-05
1.58764e-13
-5.63973e-07
-1.72596e-05
1.39293e-13
-8.63679e-06
-1.32885e-05
1.36985e-13
-1.73383e-05
-6.34994e-06
1.48785e-13
-2.22552e-05
1.20145e-13
-1.43741e-05
-2.97127e-06
6.27524e-07
6.89855e-06
-7.60406e-06
8.54936e-07
1.23195e-05
-1.20236e-05
6.28832e-07
1.27356e-05
-1.54862e-05
1.83109e-07
1.02917e-05
-1.77177e-05
-3.03603e-07
5.81541e-06
-1.84571e-05
-6.82154e-07
-5.63973e-07
-1.72596e-05
-8.05677e-07
-8.63679e-06
-1.32885e-05
-6.11482e-07
-1.73383e-05
-6.34994e-06
-2.43226e-07
-2.22552e-05
-1.63264e-08
-1.43741e-05
-2.72837e-06
1.06044e-06
6.86708e-06
-7.00875e-06
1.42886e-06
1.22684e-05
-1.11821e-05
1.07532e-06
1.27996e-05
-1.45882e-05
3.71743e-07
1.05646e-05
-1.69338e-05
-4.04496e-07
6.30898e-06
-1.7867e-05
-1.01578e-06
8.3575e-08
-1.68579e-05
-1.24771e-06
-7.86437e-06
-1.30252e-05
-9.56162e-07
-1.6473e-05
-6.2219e-06
-3.64848e-07
-2.13919e-05
-2.08764e-08
-1.39012e-05
-2.22602e-06
1.10748e-06
6.68209e-06
-5.75968e-06
1.45368e-06
1.18805e-05
-9.34645e-06
1.12692e-06
1.25697e-05
-1.24989e-05
4.74194e-07
1.07677e-05
-1.49256e-05
-2.53558e-07
7.08267e-06
-1.61939e-05
-8.35395e-07
1.47235e-06
-1.56029e-05
-1.06762e-06
-5.98808e-06
-1.21999e-05
-7.99553e-07
-1.41891e-05
-5.8512e-06
-2.51445e-07
-1.9082e-05
-1.42743e-08
-1.26491e-05
-1.46493e-06
6.64343e-07
5.95489e-06
-3.83081e-06
8.23006e-07
1.03288e-05
-6.36338e-06
6.57108e-07
1.10365e-05
-8.82502e-06
3.33134e-07
9.87615e-06
-1.10069e-05
-3.52415e-08
7.29053e-06
-1.24876e-05
-3.15473e-07
3.10598e-06
-1.24851e-05
-4.13603e-07
-2.79777e-06
-1.001e-05
-2.5468e-07
-9.62388e-06
-4.85935e-06
-7.35217e-09
-1.41493e-05
-1.08852e-08
-9.92584e-06
-5.00896e-07
3.58288e-06
-1.33585e-06
5.69293e-06
-2.2897e-06
6.03614e-06
-3.37057e-06
5.65804e-06
-4.54418e-06
4.74249e-06
-5.57309e-06
3.11083e-06
-5.94525e-06
5.1718e-07
-4.97663e-06
-2.84488e-06
-2.466e-06
-5.62051e-06
-4.67204e-06
-6.89572e-07
-7.33714e-07
5.00616e-06
-1.49691e-06
-8.34249e-07
7.33451e-06
-2.32676e-06
-5.04836e-07
7.37083e-06
-3.38416e-06
6.75454e-08
6.64789e-06
-4.79499e-06
7.17658e-07
5.43567e-06
-6.42139e-06
1.28398e-06
3.45325e-06
-7.62742e-06
1.54135e-06
1.8185e-07
-7.25225e-06
1.23549e-06
-4.45553e-06
-4.29199e-06
4.95661e-07
-9.07643e-06
-6.47306e-08
-8.8993e-06
-1.73783e-06
-1.19099e-06
8.15e-06
-4.11071e-06
-1.44457e-06
1.33119e-05
-6.47826e-06
-8.30069e-07
1.37293e-05
-8.8604e-06
2.47777e-07
1.20781e-05
-1.12919e-05
1.45101e-06
8.98872e-06
-1.34822e-05
2.44068e-06
4.13958e-06
-1.45735e-05
2.82275e-06
-2.98794e-06
-1.30123e-05
2.24839e-06
-1.2198e-05
-7.42682e-06
9.50608e-07
-2.01897e-05
-6.04114e-08
-1.7357e-05
-2.49779e-06
-1.11863e-06
9.10752e-06
-6.02606e-06
-1.39432e-06
1.53586e-05
-9.37802e-06
-7.5746e-07
1.58491e-05
-1.23168e-05
3.51305e-07
1.3603e-05
-1.4806e-05
1.55296e-06
9.4699e-06
-1.66114e-05
2.48121e-06
3.23714e-06
-1.70662e-05
2.74619e-06
-5.45672e-06
-1.47798e-05
2.10489e-06
-1.63319e-05
-8.36503e-06
8.68481e-07
-2.54146e-05
-3.22294e-08
-2.10423e-05
-2.97491e-06
-6.53656e-07
9.37702e-06
-7.20629e-06
-8.23526e-07
1.5929e-05
-1.10532e-05
-4.27782e-07
1.63169e-05
-1.41038e-05
2.54196e-07
1.37122e-05
-1.63387e-05
9.74038e-07
9.12284e-06
-1.76897e-05
1.49637e-06
2.41944e-06
-1.77208e-05
1.60878e-06
-6.69585e-06
-1.52039e-05
1.19239e-06
-1.80774e-05
-8.65469e-06
4.77317e-07
-2.75499e-05
-1.06165e-08
-2.25775e-05
-3.19669e-06
1.47307e-13
9.44158e-06
-7.74495e-06
2.98171e-13
1.60443e-05
-1.17773e-05
2.75876e-13
1.63401e-05
-1.48016e-05
2.11997e-13
1.35702e-05
-1.68439e-05
1.4112e-13
8.83178e-06
-1.7941e-05
1.10777e-13
2.02946e-06
-1.78205e-05
1.31423e-13
-7.14851e-06
-1.52892e-05
1.61924e-13
-1.86772e-05
-8.75972e-06
1.73325e-13
-2.83074e-05
1.31267e-13
-2.31445e-05
-3.19669e-06
6.53657e-07
9.44158e-06
-7.74495e-06
8.23527e-07
1.60443e-05
-1.17773e-05
4.27782e-07
1.63401e-05
-1.48016e-05
-2.54195e-07
1.35702e-05
-1.68439e-05
-9.74037e-07
8.83178e-06
-1.7941e-05
-1.49637e-06
2.02946e-06
-1.78205e-05
-1.60878e-06
-7.14851e-06
-1.52892e-05
-1.19239e-06
-1.86772e-05
-8.75972e-06
-4.77317e-07
-2.83074e-05
1.06167e-08
-2.31445e-05
-2.97491e-06
1.11863e-06
9.37702e-06
-7.20629e-06
1.39432e-06
1.5929e-05
-1.10532e-05
7.5746e-07
1.63169e-05
-1.41038e-05
-3.51305e-07
1.37122e-05
-1.63387e-05
-1.55296e-06
9.12284e-06
-1.76897e-05
-2.48121e-06
2.41944e-06
-1.77208e-05
-2.74619e-06
-6.69585e-06
-1.52039e-05
-2.10489e-06
-1.80774e-05
-8.65469e-06
-8.68481e-07
-2.75499e-05
3.22297e-08
-2.25775e-05
-2.49779e-06
1.19099e-06
9.10752e-06
-6.02606e-06
1.44457e-06
1.53586e-05
-9.37802e-06
8.30069e-07
1.58491e-05
-1.23168e-05
-2.47777e-07
1.3603e-05
-1.4806e-05
-1.45101e-06
9.4699e-06
-1.66114e-05
-2.44068e-06
3.23714e-06
-1.70662e-05
-2.82275e-06
-5.45672e-06
-1.47798e-05
-2.24839e-06
-1.63319e-05
-8.36503e-06
-9.50608e-07
-2.54146e-05
6.04113e-08
-2.10423e-05
-1.73783e-06
7.33714e-07
8.15e-06
-4.11071e-06
8.34249e-07
1.33119e-05
-6.47826e-06
5.04836e-07
1.37293e-05
-8.8604e-06
-6.75455e-08
1.20781e-05
-1.12919e-05
-7.17658e-07
8.98872e-06
-1.34822e-05
-1.28397e-06
4.13958e-06
-1.45735e-05
-1.54135e-06
-2.98794e-06
-1.30123e-05
-1.23549e-06
-1.2198e-05
-7.42682e-06
-4.95661e-07
-2.01897e-05
6.47307e-08
-1.7357e-05
-6.89573e-07
5.00616e-06
-1.49691e-06
7.33451e-06
-2.32676e-06
7.37083e-06
-3.38416e-06
6.64789e-06
-4.79499e-06
5.43567e-06
-6.42139e-06
3.45325e-06
-7.62742e-06
1.8185e-07
-7.25225e-06
-4.45553e-06
-4.29199e-06
-9.07643e-06
-8.8993e-06
-1.22001e-06
-8.29061e-07
7.05523e-06
-1.8156e-06
-8.3872e-07
8.76883e-06
-2.16573e-06
-3.08202e-07
8.02916e-06
-2.80746e-06
5.42113e-07
6.74751e-06
-4.12154e-06
1.52491e-06
5.22485e-06
-6.1757e-06
2.45487e-06
3.05254e-06
-8.42774e-06
2.98399e-06
-5.50108e-07
-9.2358e-06
2.59022e-06
-6.23769e-06
-6.51051e-06
1.19999e-06
-1.30017e-05
-2.97656e-07
-1.51122e-05
-2.36055e-06
-1.27422e-06
1.09557e-05
-4.34564e-06
-1.40832e-06
1.58666e-05
-5.84784e-06
-4.88565e-07
1.54118e-05
-7.32031e-06
9.94233e-07
1.30984e-05
-9.16231e-06
2.64187e-06
9.71377e-06
-1.14172e-05
4.03976e-06
4.80956e-06
-1.349e-05
4.6251e-06
-2.55626e-06
-1.3644e-05
3.75905e-06
-1.32128e-05
-9.28558e-06
1.56782e-06
-2.4916e-05
-4.25019e-07
-2.65152e-05
-3.00194e-06
-1.15795e-06
1.19932e-05
-5.98222e-06
-1.32499e-06
1.82555e-05
-8.2297e-06
-4.20037e-07
1.8028e-05
-9.94534e-06
1.02414e-06
1.52887e-05
-1.14674e-05
2.5604e-06
1.10735e-05
-1.29652e-05
3.74113e-06
5.03355e-06
-1.41851e-05
4.05803e-06
-3.66976e-06
-1.38449e-05
3.08452e-06
-1.59976e-05
-9.45911e-06
1.15029e-06
-2.93829e-05
-3.47071e-07
-3.05794e-05
-3.36892e-06
-6.63678e-07
1.22517e-05
-6.9107e-06
-7.70009e-07
1.89158e-05
-9.48627e-06
-2.25066e-07
1.86975e-05
-1.11338e-05
6.35486e-07
1.57484e-05
-1.22194e-05
1.52e-06
1.12489e-05
-1.31097e-05
2.1508e-06
4.89997e-06
-1.38671e-05
2.24716e-06
-4.12757e-06
-1.34938e-05
1.62772e-06
-1.69938e-05
-9.41221e-06
5.60926e-07
-3.10422e-05
-1.77948e-07
-3.21588e-05
-3.52903e-06
9.8106e-14
1.23069e-05
-7.30709e-06
2.123e-13
1.90523e-05
-9.98305e-06
2.1656e-13
1.8791e-05
-1.1527e-05
1.73494e-13
1.57496e-05
-1.23547e-05
1.34915e-13
1.11795e-05
-1.29682e-05
1.37432e-13
4.79367e-06
-1.35934e-05
1.73059e-13
-4.27615e-06
-1.33166e-05
2.02301e-13
-1.73262e-05
-9.42244e-06
2.07695e-13
-3.16407e-05
1.43692e-13
-3.27449e-05
-3.52903e-06
6.63679e-07
1.23069e-05
-7.30709e-06
7.7001e-07
1.90523e-05
-9.98305e-06
2.25067e-07
1.8791e-05
-1.1527e-05
-6.35486e-07
1.57496e-05
-1.23547e-05
-1.52e-06
1.11795e-05
-1.29682e-05
-2.1508e-06
4.79367e-06
-1.35934e-05
-2.24716e-06
-4.27615e-06
-1.33166e-05
-1.62772e-06
-1.73262e-05
-9.42244e-06
-5.60926e-07
-3.16407e-05
1.77948e-07
-3.27449e-05
-3.36892e-06
1.15795e-06
1.22517e-05
-6.9107e-06
1.325e-06
1.89158e-05
-9.48627e-06
4.20038e-07
1.86975e-05
-1.11338e-05
-1.02414e-06
1.57484e-05
-1.22194e-05
-2.5604e-06
1.12489e-05
-1.31097e-05
-3.74113e-06
4.89997e-06
-1.38671e-05
-4.05803e-06
-4.12757e-06
-1.34938e-05
-3.08452e-06
-1.69938e-05
-9.41221e-06
-1.15029e-06
-3.10422e-05
3.47071e-07
-3.21588e-05
-3.00194e-06
1.27422e-06
1.19932e-05
-5.98222e-06
1.40832e-06
1.82555e-05
-8.2297e-06
4.88565e-07
1.8028e-05
-9.94534e-06
-9.94233e-07
1.52887e-05
-1.14674e-05
-2.64187e-06
1.10735e-05
-1.29652e-05
-4.03976e-06
5.03355e-06
-1.41851e-05
-4.6251e-06
-3.66976e-06
-1.38449e-05
-3.75905e-06
-1.59976e-05
-9.45911e-06
-1.56782e-06
-2.93829e-05
4.25019e-07
-3.05794e-05
-2.36055e-06
8.29061e-07
1.09557e-05
-4.34564e-06
8.3872e-07
1.58666e-05
-5.84784e-06
3.08202e-07
1.54118e-05
-7.32031e-06
-5.42112e-07
1.30984e-05
-9.16231e-06
-1.52491e-06
9.71377e-06
-1.14172e-05
-2.45487e-06
4.80956e-06
-1.349e-05
-2.98399e-06
-2.55626e-06
-1.3644e-05
-2.59022e-06
-1.32128e-05
-9.28558e-06
-1.19999e-06
-2.4916e-05
2.97656e-07
-2.65152e-05
-1.22001e-06
7.05523e-06
-1.8156e-06
8.76883e-06
-2.16573e-06
8.02916e-06
-2.80746e-06
6.74751e-06
-4.12154e-06
5.22485e-06
-6.1757e-06
3.05254e-06
-8.42774e-06
-5.50108e-07
-9.2358e-06
-6.23769e-06
-6.51051e-06
-1.30017e-05
-1.51122e-05
-2.46658e-06
-1.08178e-06
1.06036e-05
-2.21512e-06
-1.07341e-06
9.59077e-06
-1.26248e-06
-3.83542e-07
7.46007e-06
-7.11863e-07
6.85015e-07
5.51188e-06
-1.20524e-06
1.91591e-06
3.80232e-06
-3.06993e-06
3.14736e-06
1.76987e-06
-6.14381e-06
4.0288e-06
-1.50504e-06
-8.68176e-06
3.6817e-06
-7.38143e-06
-7.67099e-06
1.61764e-06
-1.56301e-05
-1.01706e-06
-2.17661e-05
-4.00229e-06
-1.52856e-06
1.54048e-05
-4.63135e-06
-1.65475e-06
1.7077e-05
-3.82361e-06
-5.78454e-07
1.4799e-05
-2.86386e-06
1.08526e-06
1.17384e-05
-2.60613e-06
2.94053e-06
8.43142e-06
-3.53316e-06
4.59639e-06
4.28757e-06
-5.70405e-06
5.49725e-06
-1.85381e-06
-8.02782e-06
4.59547e-06
-1.18028e-05
-7.43395e-06
1.61614e-06
-2.55084e-05
-1.38685e-06
-3.35794e-05
-4.60828e-06
-1.30609e-06
1.6379e-05
-5.93695e-06
-1.46798e-06
1.93974e-05
-5.45983e-06
-4.72619e-07
1.74451e-05
-4.28163e-06
1.04258e-06
1.41532e-05
-3.22178e-06
2.64819e-06
1.0306e-05
-2.91784e-06
3.94918e-06
5.37682e-06
-3.81941e-06
4.46172e-06
-1.73265e-06
-5.7336e-06
3.45226e-06
-1.29403e-05
-5.98738e-06
1.01482e-06
-2.85278e-05
-1.02454e-06
-3.69291e-05
-4.87034e-06
-7.21416e-07
1.65373e-05
-6.55759e-06
-8.2362e-07
1.99587e-05
-6.21614e-06
-2.44472e-07
1.81279e-05
-4.83936e-06
6.24288e-07
1.47899e-05
-3.26772e-06
1.5115e-06
1.08139e-05
-2.29433e-06
2.18039e-06
5.69537e-06
-2.65166e-06
2.37211e-06
-1.68064e-06
-4.61066e-06
1.74407e-06
-1.33266e-05
-5.47732e-06
4.59911e-07
-2.96206e-05
-4.91065e-07
-3.81696e-05
-4.96388e-06
8.29882e-14
1.65494e-05
-6.78243e-06
1.71835e-13
2.00472e-05
-6.46336e-06
1.83425e-13
1.82275e-05
-4.96251e-06
1.62896e-13
1.48731e-05
-3.15574e-06
1.60061e-13
1.08842e-05
-1.93559e-06
2.00509e-13
5.75391e-06
-2.16311e-06
2.33546e-13
-1.67652e-06
-4.26131e-06
2.62389e-13
-1.34839e-05
-5.40001e-06
2.38384e-13
-3.00421e-05
1.49859e-13
-3.86359e-05
-4.96388e-06
7.21416e-07
1.65494e-05
-6.78243e-06
8.2362e-07
2.00472e-05
-6.46336e-06
2.44472e-07
1.82275e-05
-4.96251e-06
-6.24288e-07
1.48731e-05
-3.15574e-06
-1.5115e-06
1.08842e-05
-1.93559e-06
-2.18039e-06
5.75391e-06
-2.16311e-06
-2.37211e-06
-1.67652e-06
-4.26131e-06
-1.74407e-06
-1.34839e-05
-5.40001e-06
-4.59911e-07
-3.00421e-05
4.91065e-07
-3.86359e-05
-4.87034e-06
1.30609e-06
1.65373e-05
-6.55759e-06
1.46798e-06
1.99587e-05
-6.21614e-06
4.7262e-07
1.81279e-05
-4.83936e-06
-1.04258e-06
1.47899e-05
-3.26772e-06
-2.64819e-06
1.08139e-05
-2.29433e-06
-3.94918e-06
5.69537e-06
-2.65166e-06
-4.46172e-06
-1.68064e-06
-4.61066e-06
-3.45226e-06
-1.33266e-05
-5.47732e-06
-1.01482e-06
-2.96206e-05
1.02454e-06
-3.81696e-05
-4.60828e-06
1.52856e-06
1.6379e-05
-5.93695e-06
1.65475e-06
1.93974e-05
-5.45983e-06
5.78454e-07
1.74451e-05
-4.28163e-06
-1.08526e-06
1.41532e-05
-3.22178e-06
-2.94053e-06
1.0306e-05
-2.91784e-06
-4.59639e-06
5.37682e-06
-3.81941e-06
-5.49725e-06
-1.73265e-06
-5.7336e-06
-4.59547e-06
-1.29403e-05
-5.98738e-06
-1.61614e-06
-2.85278e-05
1.38685e-06
-3.69291e-05
-4.00229e-06
1.08178e-06
1.54048e-05
-4.63135e-06
1.07341e-06
1.7077e-05
-3.82361e-06
3.83542e-07
1.4799e-05
-2.86386e-06
-6.85015e-07
1.17384e-05
-2.60613e-06
-1.91591e-06
8.43142e-06
-3.53316e-06
-3.14736e-06
4.28757e-06
-5.70405e-06
-4.0288e-06
-1.85381e-06
-8.02782e-06
-3.6817e-06
-1.18028e-05
-7.43396e-06
-1.61764e-06
-2.55084e-05
1.01706e-06
-3.35794e-05
-2.46658e-06
1.06036e-05
-2.21512e-06
9.59077e-06
-1.26248e-06
7.46007e-06
-7.11863e-07
5.51188e-06
-1.20524e-06
3.80232e-06
-3.06993e-06
1.76987e-06
-6.14381e-06
-1.50504e-06
-8.68176e-06
-7.38143e-06
-7.67099e-06
-1.56301e-05
-2.17661e-05
-2.66653e-06
-1.85779e-06
1.51279e-05
5.28447e-07
-1.99071e-06
8.3865e-06
4.57166e-06
-1.1984e-06
4.61526e-06
7.43378e-06
-1.4147e-07
2.79122e-06
8.61607e-06
1.09999e-06
1.52004e-06
7.68067e-06
2.38305e-06
3.22218e-07
4.36495e-06
3.5476e-06
-1.73691e-06
-6.12557e-07
3.44487e-06
-5.84879e-06
-3.46889e-06
8.95344e-07
-1.36691e-05
-2.72679e-06
-2.25082e-05
-4.75881e-06
-2.23284e-06
2.05386e-05
-7.46054e-07
-2.67797e-06
1.37516e-05
5.19068e-06
-1.76421e-06
9.42808e-06
1.03419e-05
-2.88116e-07
6.73386e-06
1.40146e-05
1.37872e-06
4.48001e-06
1.55275e-05
3.00872e-06
2.14899e-06
1.40761e-05
4.26477e-06
-1.11961e-06
9.34179e-06
3.82722e-06
-7.45081e-06
3.10325e-06
6.81691e-07
-1.90562e-05
-2.77105e-06
-3.04319e-05
-5.51847e-06
-1.71024e-06
2.13749e-05
-1.69595e-06
-2.1692e-06
1.50661e-05
4.40054e-06
-1.43463e-06
1.1019e-05
1.02341e-05
-2.27176e-07
8.25865e-06
1.50452e-05
1.11487e-06
5.75876e-06
1.80396e-05
2.35247e-06
3.03862e-06
1.79723e-05
3.18908e-06
-5.89644e-07
1.37459e-05
2.73645e-06
-7.62306e-06
5.73048e-06
4.21285e-07
-2.02519e-05
-1.73779e-06
-3.22318e-05
-5.71233e-06
-8.88587e-07
2.1428e-05
-2.02754e-06
-1.15297e-06
1.52576e-05
4.07239e-06
-7.49989e-07
1.13433e-05
1.01188e-05
-1.013e-07
8.61759e-06
1.53457e-05
6.08084e-07
6.09383e-06
1.8869e-05
1.23661e-06
3.2879e-06
1.92013e-05
1.62192e-06
-4.45782e-07