/*--------------------------------*- C++ -*----------------------------------*\
  =========                 |
  \\      /  F ield         | OpenFOAM: The Open Source CFD Toolbox
   \\    /   O peration     | Website:  https://openfoam.org
    \\  /    A nd           | Version:  9
     \\/     M anipulation  |
\*---------------------------------------------------------------------------*/
FoamFile
{
    format      ascii;
    class       volVectorField;
    location    "0.24";
    object      U;
}
// * * * * * * * * * * * * * * * * * * * * * * * * * * * * * * * * * * * * * //

dimensions      [0 1 -1 0 0 0 0];

internalField   nonuniform List<vector> 
1000
(
(-0.000182565 -0.000298758 0.000397396)
(-0.00195677 -0.000166567 0.00104388)
(-0.00520102 -0.000100582 0.00122777)
(-0.0082808 -0.000162223 0.0011662)
(-0.0106274 -0.000343498 0.000940241)
(-0.0116278 -0.000611343 0.00053343)
(-0.0106954 -0.000887999 -4.74431e-05)
(-0.00762738 -0.00103064 -0.00064038)
(-0.00302392 -0.000857247 -0.000807931)
(-0.000235299 -0.000223183 -0.000133765)
(-0.000477263 -0.000887158 0.00064126)
(-0.00399503 -0.000813974 0.0020219)
(-0.0101633 -0.000720424 0.00240214)
(-0.0159025 -0.000842007 0.00216487)
(-0.020116 -0.0012067 0.00150759)
(-0.0217508 -0.00175808 0.000441754)
(-0.0198423 -0.00231869 -0.000952269)
(-0.0140866 -0.00256401 -0.00219082)
(-0.00566409 -0.00212646 -0.00229347)
(-0.00051983 -0.000717507 -0.000462605)
(-0.000594036 -0.00114928 0.00050675)
(-0.00493363 -0.00135239 0.00216092)
(-0.0125039 -0.00132091 0.00262828)
(-0.0194865 -0.00141287 0.0023003)
(-0.0245492 -0.0017128 0.00141906)
(-0.0264275 -0.00218481 1.69914e-05)
(-0.0239574 -0.00265087 -0.00178778)
(-0.0168041 -0.00280471 -0.00330171)
(-0.00648857 -0.00233197 -0.0032348)
(-0.000429167 -0.000970848 -0.00065649)
(-0.000607948 -0.000886666 0.00032957)
(-0.00527803 -0.00113565 0.00204228)
(-0.0134815 -0.00113556 0.00254544)
(-0.0210326 -0.00118047 0.00219676)
(-0.0264849 -0.00134958 0.00124183)
(-0.0284596 -0.00162438 -0.000288)
(-0.0256914 -0.0018885 -0.00225333)
(-0.017844 -0.00195536 -0.00386342)
(-0.00662367 -0.00163778 -0.00367648)
(-0.000261663 -0.00075413 -0.000719378)
(-0.00059826 -0.000326552 0.000229539)
(-0.00537229 -0.000432519 0.00194349)
(-0.0138068 -0.000436133 0.00246112)
(-0.021572 -0.000447637 0.00211563)
(-0.0271748 -0.000498499 0.00114777)
(-0.029187 -0.000583706 -0.00041654)
(-0.026298 -0.000666077 -0.00242747)
(-0.0181727 -0.000683469 -0.00406431)
(-0.00660109 -0.000576004 -0.00382751)
(-0.000160807 -0.000278427 -0.000732092)
(-0.00059826 0.000326592 0.00022954)
(-0.00537229 0.000432546 0.00194349)
(-0.0138068 0.000436153 0.00246112)
(-0.021572 0.000447652 0.00211563)
(-0.0271748 0.000498509 0.00114777)
(-0.029187 0.000583713 -0.000416541)
(-0.026298 0.000666081 -0.00242747)
(-0.0181727 0.00068347 -0.00406431)
(-0.00660109 0.000576002 -0.00382751)
(-0.000160807 0.000278419 -0.000732092)
(-0.000607947 0.000886709 0.000329573)
(-0.00527803 0.00113567 0.00204228)
(-0.0134815 0.00113558 0.00254544)
(-0.0210326 0.00118048 0.00219676)
(-0.0264849 0.00134959 0.00124183)
(-0.0284596 0.00162438 -0.000288002)
(-0.0256914 0.0018885 -0.00225333)
(-0.017844 0.00195536 -0.00386342)
(-0.00662367 0.00163778 -0.00367649)
(-0.000261663 0.000754122 -0.000719379)
(-0.000594031 0.00114932 0.000506758)
(-0.00493364 0.00135241 0.00216093)
(-0.0125039 0.00132092 0.00262828)
(-0.0194865 0.00141288 0.0023003)
(-0.0245492 0.00171281 0.00141906)
(-0.0264275 0.00218482 1.69879e-05)
(-0.0239574 0.00265087 -0.00178778)
(-0.0168041 0.00280471 -0.00330172)
(-0.00648857 0.00233197 -0.00323481)
(-0.000429166 0.000970842 -0.000656492)
(-0.000477234 0.000887171 0.000641294)
(-0.00399502 0.000813962 0.00202193)
(-0.0101633 0.000720432 0.00240216)
(-0.0159025 0.000842016 0.00216488)
(-0.020116 0.00120671 0.00150758)
(-0.0217508 0.00175809 0.000441751)
(-0.0198423 0.0023187 -0.000952273)
(-0.0140866 0.00256401 -0.00219082)
(-0.00566409 0.00212646 -0.00229348)
(-0.000519829 0.000717506 -0.000462606)
(-0.000182535 0.000298725 0.000397429)
(-0.00195679 0.000166535 0.00104392)
(-0.00520105 0.00010058 0.00122778)
(-0.00828084 0.000162225 0.0011662)
(-0.0106275 0.0003435 0.00094024)
(-0.0116278 0.000611346 0.00053343)
(-0.0106954 0.000888002 -4.74434e-05)
(-0.00762739 0.00103065 -0.00064038)
(-0.00302393 0.000857251 -0.000807932)
(-0.000235299 0.000223185 -0.000133763)
(-0.000787641 -0.000877304 0.00300321)
(-0.00451433 -0.000908893 0.00573619)
(-0.0104269 -0.000830241 0.0063092)
(-0.015914 -0.000816855 0.00572834)
(-0.0200403 -0.000907317 0.00433494)
(-0.0218343 -0.00109912 0.00213318)
(-0.0203406 -0.0013257 -0.000746368)
(-0.0150671 -0.00138003 -0.0035711)
(-0.00680577 -0.0010082 -0.00463101)
(-0.00105815 1.01849e-05 -0.00205135)
(-0.00204578 -0.00220078 0.00489855)
(-0.0103187 -0.00256264 0.0105473)
(-0.0227525 -0.00244242 0.0117012)
(-0.0339922 -0.00240562 0.0101156)
(-0.0420519 -0.00260207 0.00660705)
(-0.0451439 -0.00302536 0.0013723)
(-0.0416071 -0.0035074 -0.00504569)
(-0.0307129 -0.00357283 -0.0107007)
(-0.0142281 -0.00269534 -0.0117352)
(-0.00247038 -0.000458556 -0.00457935)
(-0.00266142 -0.00246186 0.00499211)
(-0.0132784 -0.00320499 0.0117031)
(-0.0290678 -0.00315667 0.0130618)
(-0.0431381 -0.00309376 0.0109126)
(-0.0530131 -0.00325283 0.00625391)
(-0.0565592 -0.00363766 -0.000595483)
(-0.0517989 -0.00405257 -0.00883195)
(-0.0379329 -0.00405126 -0.0157236)
(-0.0173156 -0.00316217 -0.0161924)
(-0.00287574 -0.00101501 -0.00600281)
(-0.0028658 -0.00176387 0.00466735)
(-0.0144747 -0.00243495 0.0116342)
(-0.0317854 -0.00243264 0.0130615)
(-0.0471272 -0.00236922 0.0107007)
(-0.0578043 -0.00244459 0.00557857)
(-0.0615109 -0.00267056 -0.00195315)
(-0.0561247 -0.00289843 -0.0109533)
(-0.0408384 -0.00286665 -0.0183187)
(-0.0183063 -0.00228476 -0.0183739)
(-0.00285156 -0.000884954 -0.00662737)
(-0.00290568 -0.000627987 0.00443741)
(-0.0148375 -0.000889858 0.01143)
(-0.0326986 -0.000894392 0.0128849)
(-0.0485075 -0.000867413 0.0104779)
(-0.059484 -0.000885283 0.00522542)
(-0.0632473 -0.000954381 -0.00251933)
(-0.0576166 -0.00102275 -0.0117651)
(-0.0417886 -0.00100716 -0.0192809)
(-0.0185416 -0.000812851 -0.0191655)
(-0.002778 -0.000341653 -0.00683802)
(-0.00290568 0.000628016 0.00443741)
(-0.0148375 0.000889865 0.01143)
(-0.0326986 0.000894395 0.0128849)
(-0.0485075 0.000867421 0.0104779)
(-0.059484 0.000885293 0.00522541)
(-0.0632473 0.000954392 -0.00251933)
(-0.0576166 0.00102276 -0.0117651)
(-0.0417886 0.00100717 -0.0192809)
(-0.0185416 0.000812857 -0.0191655)
(-0.00277801 0.000341653 -0.00683801)
(-0.0028658 0.0017639 0.00466736)
(-0.0144747 0.00243495 0.0116342)
(-0.0317854 0.00243265 0.0130615)
(-0.0471271 0.00236922 0.0107007)
(-0.0578043 0.0024446 0.00557857)
(-0.0615109 0.00267057 -0.00195315)
(-0.0561247 0.00289844 -0.0109533)
(-0.0408384 0.00286666 -0.0183187)
(-0.0183063 0.00228477 -0.0183739)
(-0.00285157 0.000884954 -0.00662737)
(-0.00266141 0.00246187 0.00499211)
(-0.0132784 0.00320498 0.0117031)
(-0.0290678 0.00315666 0.0130618)
(-0.0431381 0.00309377 0.0109126)
(-0.0530131 0.00325284 0.0062539)
(-0.0565592 0.00363767 -0.000595491)
(-0.0517989 0.00405258 -0.00883196)
(-0.0379329 0.00405127 -0.0157236)
(-0.0173156 0.00316218 -0.0161924)
(-0.00287574 0.00101501 -0.0060028)
(-0.00204575 0.00220077 0.00489857)
(-0.0103187 0.00256261 0.0105473)
(-0.0227525 0.00244242 0.0117012)
(-0.0339922 0.00240563 0.0101156)
(-0.0420519 0.00260208 0.00660705)
(-0.0451439 0.00302537 0.00137229)
(-0.0416071 0.00350741 -0.0050457)
(-0.0307129 0.00357284 -0.0107007)
(-0.0142281 0.00269535 -0.0117352)
(-0.00247038 0.000458557 -0.00457934)
(-0.00078761 0.00087727 0.00300321)
(-0.00451432 0.000908862 0.00573621)
(-0.010427 0.000830231 0.0063092)
(-0.0159141 0.000816855 0.00572834)
(-0.0200403 0.00090732 0.00433494)
(-0.0218343 0.00109912 0.00213319)
(-0.0203406 0.0013257 -0.000746366)
(-0.0150671 0.00138003 -0.0035711)
(-0.00680577 0.00100821 -0.004631)
(-0.00105815 -1.01836e-05 -0.00205134)
(-0.00123077 -0.00140394 0.00822265)
(-0.00633727 -0.00156763 0.0142099)
(-0.0140576 -0.0014651 0.0151769)
(-0.0212024 -0.00137164 0.0135829)
(-0.0268359 -0.00137461 0.0101929)
(-0.0298498 -0.0015102 0.00501996)
(-0.0288581 -0.00172362 -0.00173007)
(-0.0226178 -0.00177438 -0.0086188)
(-0.0113315 -0.00127288 -0.0119274)
(-0.00225138 0.000173976 -0.00675208)
(-0.00327155 -0.00340216 0.013457)
(-0.0151371 -0.00412464 0.0256034)
(-0.0321191 -0.00393192 0.0274829)
(-0.0473631 -0.00367778 0.0233948)
(-0.0587264 -0.00363973 0.0151294)
(-0.0641009 -0.00389109 0.00311104)
(-0.0610298 -0.00430015 -0.0116304)
(-0.0474394 -0.00432847 -0.0252799)
(-0.0241216 -0.00321829 -0.0293366)
(-0.00503236 -0.00022781 -0.0142793)
(-0.00432905 -0.00365591 0.0144598)
(-0.0198271 -0.00484168 0.0288219)
(-0.0417523 -0.00469885 0.0309289)
(-0.0611083 -0.00436398 0.0254142)
(-0.0751751 -0.00422756 0.0144654)
(-0.0814342 -0.00437252 -0.00123866)
(-0.0769601 -0.00464486 -0.0200813)
(-0.0593355 -0.00457969 -0.0367578)
(-0.0298241 -0.00355144 -0.0400404)
(-0.00603328 -0.000914126 -0.0183816)
(-0.00471127 -0.00254339 0.0142752)
(-0.0217751 -0.00354287 0.0292177)
(-0.0459532 -0.00346702 0.0313735)
(-0.0671556 -0.00319304 0.0252764)
(-0.0824134 -0.00303779 0.0132101)
(-0.0890059 -0.0030692 -0.00403939)
(-0.083802 -0.0031636 -0.0246812)
(-0.0642586 -0.00308073 -0.0425877)
(-0.0318835 -0.0024523 -0.0452479)
(-0.00621275 -0.000831784 -0.0202617)
(-0.00479987 -0.000890837 0.0140202)
(-0.0223753 -0.00127032 0.0290547)
(-0.0473607 -0.00124751 0.0312355)
(-0.0692327 -0.00114275 0.0249833)
(-0.0849283 -0.00107508 0.0125799)
(-0.0916423 -0.00107029 -0.00517277)
(-0.0861635 -0.00108667 -0.0263955)
(-0.0659073 -0.00105276 -0.0447148)
(-0.0324795 -0.00085173 -0.0471309)
(-0.00619903 -0.000325183 -0.0209235)
(-0.00479987 0.00089086 0.0140202)
(-0.0223753 0.00127032 0.0290547)
(-0.0473607 0.0012475 0.0312355)
(-0.0692327 0.00114276 0.0249833)
(-0.0849283 0.00107509 0.0125799)
(-0.0916423 0.0010703 -0.00517277)
(-0.0861635 0.00108667 -0.0263955)
(-0.0659073 0.00105277 -0.0447148)
(-0.0324795 0.000851733 -0.0471309)
(-0.00619903 0.000325185 -0.0209235)
(-0.00471127 0.00254342 0.0142752)
(-0.0217751 0.00354287 0.0292177)
(-0.0459532 0.00346702 0.0313735)
(-0.0671556 0.00319304 0.0252764)
(-0.0824134 0.0030378 0.0132101)
(-0.0890059 0.0030692 -0.0040394)
(-0.083802 0.0031636 -0.0246812)
(-0.0642586 0.00308074 -0.0425877)
(-0.0318835 0.00245231 -0.0452479)
(-0.00621275 0.000831785 -0.0202617)
(-0.00432904 0.00365593 0.0144598)
(-0.0198271 0.00484167 0.0288219)
(-0.0417522 0.00469884 0.0309289)
(-0.0611083 0.00436398 0.0254142)
(-0.0751751 0.00422757 0.0144654)
(-0.0814342 0.00437253 -0.00123867)
(-0.07696 0.00464487 -0.0200813)
(-0.0593355 0.00457969 -0.0367578)
(-0.0298242 0.00355144 -0.0400404)
(-0.00603328 0.000914126 -0.0183816)
(-0.00327154 0.00340216 0.013457)
(-0.0151371 0.00412462 0.0256035)
(-0.0321191 0.00393192 0.0274829)
(-0.0473631 0.00367778 0.0233948)
(-0.0587264 0.00363974 0.0151294)
(-0.0641009 0.0038911 0.00311103)
(-0.0610298 0.00430015 -0.0116304)
(-0.0474394 0.00432847 -0.0252799)
(-0.0241216 0.00321829 -0.0293366)
(-0.00503236 0.000227808 -0.0142793)
(-0.00123076 0.00140394 0.00822263)
(-0.00633728 0.00156762 0.0142099)
(-0.0140577 0.00146509 0.0151769)
(-0.0212025 0.00137164 0.0135829)
(-0.0268359 0.00137461 0.0101929)
(-0.0298498 0.00151021 0.00501996)
(-0.0288581 0.00172362 -0.00173007)
(-0.0226178 0.00177437 -0.0086188)
(-0.0113315 0.00127288 -0.0119274)
(-0.00225139 -0.000173978 -0.00675207)
(-0.00172296 -0.00197371 0.0152477)
(-0.00819489 -0.00224163 0.025202)
(-0.0175989 -0.00206798 0.0265028)
(-0.0263899 -0.00184301 0.0237793)
(-0.0339232 -0.00170663 0.0183286)
(-0.0391307 -0.00174186 0.00992411)
(-0.0400662 -0.0019391 -0.00165086)
(-0.0340266 -0.00209621 -0.0145841)
(-0.0195022 -0.00163771 -0.0225431)
(-0.00488411 0.000169637 -0.0149433)
(-0.00453154 -0.00470595 0.0248748)
(-0.0198676 -0.00572726 0.0449208)
(-0.0411305 -0.00532783 0.0474135)
(-0.0603767 -0.00467779 0.040465)
(-0.0758536 -0.00418757 0.0270319)
(-0.0853955 -0.00404086 0.00729623)
(-0.0854339 -0.00422329 -0.0180827)
(-0.0712613 -0.00438647 -0.0439022)
(-0.0407824 -0.00354399 -0.0553252)
(-0.0101793 -0.000219169 -0.0311512)
(-0.00599752 -0.00495721 0.0271249)
(-0.0261604 -0.00652018 0.0507868)
(-0.0538628 -0.00610677 0.0535159)
(-0.0785069 -0.00523774 0.0441978)
(-0.0977821 -0.00445395 0.026421)
(-0.109024 -0.00394952 0.000643377)
(-0.107952 -0.00384242 -0.0317052)
(-0.0890446 -0.00384893 -0.0633875)
(-0.0503376 -0.00330476 -0.0747791)
(-0.0122145 -0.000856642 -0.0396558)
(-0.0065282 -0.00339128 0.0272241)
(-0.028762 -0.00466674 0.0518887)
(-0.0593839 -0.00437911 0.0546671)
(-0.0864251 -0.00368524 0.0444116)
(-0.107322 -0.00301318 0.0248607)
(-0.119284 -0.0025109 -0.00344741)
(-0.117628 -0.00230263 -0.0387018)
(-0.0964164 -0.00226171 -0.0727822)
(-0.0539742 -0.00204376 -0.0838503)
(-0.0127984 -0.000741156 -0.0434736)
(-0.00664936 -0.001176 0.0270074)
(-0.0295463 -0.00165322 0.0518729)
(-0.061196 -0.00155203 0.0546976)
(-0.0890943 -0.00129254 0.0442128)
(-0.110594 -0.00103751 0.0241689)
(-0.122811 -0.000848058 -0.00488276)
(-0.120935 -0.000736924 -0.0411029)
(-0.0989145 -0.000715523 -0.0760178)
(-0.0551358 -0.000668899 -0.0869994)
(-0.0129324 -0.000281697 -0.0447931)
(-0.00664936 0.00117602 0.0270074)
(-0.0295463 0.00165322 0.0518729)
(-0.061196 0.00155203 0.0546976)
(-0.0890943 0.00129253 0.0442128)
(-0.110594 0.00103751 0.0241689)
(-0.122811 0.000848057 -0.00488277)
(-0.120935 0.000736924 -0.0411029)
(-0.0989145 0.000715525 -0.0760178)
(-0.0551358 0.000668903 -0.0869994)
(-0.0129324 0.0002817 -0.0447931)
(-0.0065282 0.0033913 0.0272241)
(-0.028762 0.00466674 0.0518887)
(-0.0593839 0.00437911 0.0546671)
(-0.0864251 0.00368524 0.0444116)
(-0.107322 0.00301318 0.0248607)
(-0.119284 0.0025109 -0.00344741)
(-0.117628 0.00230263 -0.0387018)
(-0.0964164 0.00226171 -0.0727822)
(-0.0539742 0.00204377 -0.0838502)
(-0.0127984 0.000741159 -0.0434736)
(-0.00599752 0.00495723 0.0271249)
(-0.0261604 0.00652018 0.0507868)
(-0.0538628 0.00610676 0.053516)
(-0.0785069 0.00523774 0.0441978)
(-0.0977821 0.00445395 0.026421)
(-0.109024 0.00394952 0.000643373)
(-0.107952 0.00384242 -0.0317052)
(-0.0890446 0.00384893 -0.0633875)
(-0.0503376 0.00330475 -0.0747791)
(-0.0122145 0.000856643 -0.0396557)
(-0.00453154 0.00470596 0.0248748)
(-0.0198676 0.00572725 0.0449208)
(-0.0411304 0.00532783 0.0474135)
(-0.0603767 0.00467779 0.040465)
(-0.0758536 0.00418757 0.0270318)
(-0.0853955 0.00404086 0.00729623)
(-0.0854339 0.00422329 -0.0180827)
(-0.0712613 0.00438646 -0.0439022)
(-0.0407824 0.00354398 -0.0553252)
(-0.0101793 0.000219169 -0.0311512)
(-0.00172296 0.00197371 0.0152477)
(-0.00819489 0.00224163 0.0252019)
(-0.0175989 0.00206797 0.0265028)
(-0.0263899 0.00184301 0.0237793)
(-0.0339232 0.00170663 0.0183286)
(-0.0391307 0.00174186 0.00992411)
(-0.0400662 0.0019391 -0.00165085)
(-0.0340266 0.00209621 -0.0145841)
(-0.0195022 0.0016377 -0.0225431)
(-0.00488411 -0.000169638 -0.0149432)
(-0.00256637 -0.00264012 0.0246168)
(-0.0107143 -0.00295492 0.0390253)
(-0.0216649 -0.00256598 0.0403614)
(-0.0319362 -0.0020018 0.0363927)
(-0.0416345 -0.00145662 0.029032)
(-0.050136 -0.00107014 0.0173998)
(-0.0549573 -0.000973825 1.20288e-05)
(-0.0512815 -0.00131262 -0.0218041)
(-0.0343415 -0.00142993 -0.0387204)
(-0.0106031 -8.79788e-05 -0.030196)
(-0.00633318 -0.00618834 0.0398)
(-0.0256382 -0.00737541 0.068905)
(-0.0510698 -0.00640958 0.0717175)
(-0.0741541 -0.00480969 0.0618141)
(-0.0942413 -0.0031189 0.0434334)
(-0.109625 -0.00167535 0.0157029)
(-0.115666 -0.00082556 -0.0226861)
(-0.104174 -0.00122092 -0.0665498)
(-0.0682801 -0.00205052 -0.0936203)
(-0.0203851 -0.000535549 -0.0617907)
(-0.0082209 -0.0063941 0.0435937)
(-0.0335292 -0.00819769 0.0779865)
(-0.0668582 -0.0071072 0.0811815)
(-0.0965874 -0.00505827 0.0681672)
(-0.121555 -0.00277446 0.0440276)
(-0.139367 -0.000686366 0.00799841)
(-0.144513 0.000759351 -0.0407132)
(-0.127755 0.000554842 -0.0945322)
(-0.0823937 -0.000934654 -0.124256)
(-0.0240117 -0.000846958 -0.0775063)
(-0.00887102 -0.00430938 0.0440798)
(-0.0366845 -0.00576635 0.0800115)
(-0.0735279 -0.00498136 0.083383)
(-0.106168 -0.00341242 0.069278)
(-0.133209 -0.00162896 0.04297)
(-0.151876 3.47041e-05 0.00367568)
(-0.156351 0.00115983 -0.049116)
(-0.137086 0.00102834 -0.10697)
(-0.0877111 -0.000210201 -0.137615)
(-0.0252549 -0.000607175 -0.0842206)
(-0.00900227 -0.00148135 0.0439456)
(-0.0375787 -0.00202324 0.0802343)
(-0.0756153 -0.00174361 0.0837446)
(-0.109253 -0.00116872 0.0694481)
(-0.137009 -0.000507211 0.0426256)
(-0.156049 0.000121763 0.00244098)
(-0.160371 0.000510579 -0.0516513)
(-0.140259 0.000456531 -0.110926)
(-0.0895272 -4.71474e-06 -0.142033)
(-0.0256696 -0.000208488 -0.0864817)
(-0.00900227 0.00148136 0.0439456)
(-0.0375787 0.00202324 0.0802343)
(-0.0756153 0.0017436 0.0837446)
(-0.109253 0.00116871 0.0694481)
(-0.137009 0.000507203 0.0426256)
(-0.156049 -0.00012177 0.00244098)
(-0.160371 -0.00051058 -0.0516513)
(-0.140259 -0.000456528 -0.110926)
(-0.0895272 4.72327e-06 -0.142033)
(-0.0256696 0.000208493 -0.0864817)
(-0.00887102 0.0043094 0.0440798)
(-0.0366845 0.00576635 0.0800115)
(-0.0735279 0.00498135 0.083383)
(-0.106168 0.00341241 0.069278)
(-0.133209 0.00162895 0.04297)
(-0.151876 -3.47086e-05 0.00367569)
(-0.156351 -0.00115983 -0.049116)
(-0.137086 -0.00102833 -0.10697)
(-0.0877111 0.000210209 -0.137615)
(-0.0252549 0.00060718 -0.0842206)
(-0.0082209 0.00639411 0.0435937)
(-0.0335292 0.00819769 0.0779865)
(-0.0668582 0.0071072 0.0811815)
(-0.0965874 0.00505827 0.0681672)
(-0.121555 0.00277446 0.0440276)
(-0.139367 0.000686364 0.00799842)
(-0.144513 -0.000759349 -0.0407132)
(-0.127755 -0.000554838 -0.0945322)
(-0.0823937 0.00093466 -0.124256)
(-0.0240117 0.00084696 -0.0775063)
(-0.00633318 0.00618834 0.0398)
(-0.0256382 0.00737541 0.0689051)
(-0.0510698 0.00640958 0.0717175)
(-0.0741541 0.00480969 0.0618141)
(-0.0942413 0.0031189 0.0434334)
(-0.109625 0.00167535 0.0157029)
(-0.115666 0.000825562 -0.0226861)
(-0.104174 0.00122092 -0.0665498)
(-0.0682801 0.00205052 -0.0936202)
(-0.0203851 0.000535552 -0.0617907)
(-0.00256637 0.00264012 0.0246168)
(-0.0107143 0.00295492 0.0390253)
(-0.0216649 0.00256598 0.0403614)
(-0.0319362 0.0020018 0.0363927)
(-0.0416345 0.00145662 0.029032)
(-0.050136 0.00107014 0.0173998)
(-0.0549573 0.000973824 1.20361e-05)
(-0.0512815 0.00131262 -0.0218041)
(-0.0343415 0.00142993 -0.0387204)
(-0.0106031 8.79826e-05 -0.030196)
(-0.00430031 -0.00345136 0.0374051)
(-0.0146667 -0.00365368 0.0557435)
(-0.0262793 -0.00270264 0.0559271)
(-0.0367854 -0.00130714 0.050098)
(-0.0477767 0.000303062 0.0408021)
(-0.0598782 0.00194784 0.0260953)
(-0.0707053 0.00307301 0.00226161)
(-0.07307 0.00262265 -0.0315056)
(-0.0572721 0.000792824 -0.0633301)
(-0.0208641 -0.000491623 -0.0584775)
(-0.00937831 -0.00790071 0.0595242)
(-0.0332979 -0.00890816 0.0976445)
(-0.0614512 -0.00659057 0.0994983)
(-0.0859812 -0.00286902 0.0862148)
(-0.108379 0.00160547 0.0633405)
(-0.128624 0.00626579 0.0281144)
(-0.142159 0.00963948 -0.0244527)
(-0.137784 0.0089086 -0.0919909)
(-0.103358 0.00364383 -0.146204)
(-0.0358946 -0.00121079 -0.115789)
(-0.0116682 -0.0079649 0.0650767)
(-0.0425805 -0.00969438 0.11044)
(-0.0797158 -0.00714382 0.113131)
(-0.111433 -0.00271132 0.0964846)
(-0.138715 0.00268643 0.0670689)
(-0.160804 0.00820626 0.0219337)
(-0.172387 0.0120632 -0.0439539)
(-0.161811 0.0111566 -0.126022)
(-0.118713 0.00488584 -0.187974)
(-0.0404848 -0.00104167 -0.142)
(-0.0123679 -0.00527847 0.0659758)
(-0.0460277 -0.00672288 0.113529)
(-0.0870013 -0.00493768 0.116755)
(-0.121722 -0.00171555 0.0992179)
(-0.150889 0.00220549 0.0677057)
(-0.173375 0.00614438 0.0190825)
(-0.183668 0.00876203 -0.0518706)
(-0.170254 0.00798565 -0.139742)
(-0.12407 0.00354399 -0.204874)
(-0.0421896 -0.000558128 -0.152614)
(-0.0124675 -0.00179741 0.0659293)
(-0.0468832 -0.00234078 0.114035)
(-0.0890794 -0.00171603 0.117595)
(-0.124781 -0.000569382 0.100061)
(-0.154598 0.000821658 0.068193)
(-0.177309 0.00220353 0.0186929)
(-0.187326 0.0030861 -0.0538165)
(-0.173146 0.00278505 -0.14381)
(-0.126101 0.00124457 -0.21034)
(-0.0429025 -0.000155707 -0.156184)
(-0.0124675 0.00179742 0.0659293)
(-0.0468832 0.00234078 0.114035)
(-0.0890794 0.00171602 0.117595)
(-0.124781 0.000569372 0.100061)
(-0.154598 -0.000821668 0.068193)
(-0.177309 -0.00220354 0.0186929)
(-0.187326 -0.0030861 -0.0538165)
(-0.173146 -0.00278504 -0.14381)
(-0.126101 -0.00124456 -0.21034)
(-0.0429025 0.000155715 -0.156184)
(-0.0123679 0.00527848 0.0659758)
(-0.0460277 0.00672288 0.113529)
(-0.0870013 0.00493767 0.116755)
(-0.121722 0.00171554 0.0992179)
(-0.150889 -0.00220549 0.0677057)
(-0.173375 -0.00614439 0.0190825)
(-0.183668 -0.00876202 -0.0518706)
(-0.170254 -0.00798565 -0.139742)
(-0.12407 -0.00354398 -0.204874)
(-0.0421896 0.000558134 -0.152614)
(-0.0116682 0.0079649 0.0650767)
(-0.0425805 0.00969438 0.11044)
(-0.0797158 0.00714381 0.113131)
(-0.111433 0.00271131 0.0964846)
(-0.138715 -0.00268644 0.0670689)
(-0.160804 -0.00820626 0.0219337)
(-0.172387 -0.0120632 -0.0439539)
(-0.161811 -0.0111566 -0.126022)
(-0.118713 -0.00488583 -0.187974)
(-0.0404848 0.00104167 -0.142)
(-0.00937831 0.00790072 0.0595242)
(-0.0332979 0.00890816 0.0976445)
(-0.0614512 0.00659057 0.0994983)
(-0.0859812 0.00286901 0.0862148)
(-0.108379 -0.00160547 0.0633405)
(-0.128624 -0.00626578 0.0281144)
(-0.142159 -0.00963947 -0.0244527)
(-0.137784 -0.0089086 -0.0919909)
(-0.103358 -0.00364382 -0.146204)
(-0.0358946 0.0012108 -0.115789)
(-0.00430031 0.00345136 0.0374051)
(-0.0146667 0.00365368 0.0557434)
(-0.0262793 0.00270264 0.0559271)
(-0.0367854 0.00130713 0.050098)
(-0.0477767 -0.000303063 0.0408021)
(-0.0598782 -0.00194784 0.0260953)
(-0.0707053 -0.003073 0.00226162)
(-0.07307 -0.00262265 -0.0315055)
(-0.0572721 -0.000792822 -0.0633301)
(-0.0208641 0.000491624 -0.0584775)
(-0.00827704 -0.00454639 0.0562059)
(-0.0216739 -0.00439287 0.0745879)
(-0.0307285 -0.00231794 0.0704955)
(-0.0376878 0.000592974 0.0609683)
(-0.0465381 0.00404875 0.0490966)
(-0.0601028 0.00787367 0.0316139)
(-0.077605 0.0109841 0.00207832)
(-0.0902698 0.0107316 -0.0453148)
(-0.0836613 0.00586263 -0.0980716)
(-0.0344033 -0.00101064 -0.108158)
(-0.0153249 -0.010045 0.0868439)
(-0.0442695 -0.0103595 0.129867)
(-0.069632 -0.00553279 0.12686)
(-0.0880434 0.00172088 0.108456)
(-0.104635 0.010548 0.0813948)
(-0.122643 0.0201273 0.0408574)
(-0.140319 0.0274474 -0.0226255)
(-0.146186 0.026226 -0.114674)
(-0.12706 0.0133957 -0.206975)
(-0.0488258 -0.0029966 -0.202105)
(-0.0179343 -0.00978422 0.0940675)
(-0.0542197 -0.0110334 0.146437)
(-0.0885556 -0.00604347 0.145001)
(-0.11288 0.00197199 0.123669)
(-0.13184 0.0117601 0.090325)
(-0.148226 0.021919 0.0397638)
(-0.160457 0.0288626 -0.0379029)
(-0.15824 0.0264079 -0.147576)
(-0.134032 0.0125022 -0.254277)
(-0.0507379 -0.0025871 -0.239694)
(-0.0185607 -0.00634592 0.095191)
(-0.0574134 -0.00755812 0.150415)
(-0.0953345 -0.00421867 0.150078)
(-0.121943 0.00133611 0.128442)
(-0.141541 0.00810774 0.0935361)
(-0.156704 0.0149356 0.0398094)
(-0.166184 0.0192373 -0.0429588)
(-0.160746 0.0170959 -0.159623)
(-0.135882 0.00780542 -0.272292)
(-0.0517823 -0.0013962 -0.254318)
(-0.0185699 -0.00213619 0.0951414)
(-0.0579831 -0.00261582 0.151087)
(-0.0969109 -0.00147505 0.151349)
(-0.124193 0.000452497 0.130029)
(-0.144014 0.00279164 0.0950648)
(-0.158922 0.00511487 0.0406374)
(-0.167819 0.0065127 -0.0437832)
(-0.161795 0.00570556 -0.163186)
(-0.137169 0.00257786 -0.278334)
(-0.0525569 -0.000391615 -0.259424)
(-0.0185699 0.0021362 0.0951414)
(-0.0579831 0.00261582 0.151087)
(-0.0969109 0.00147505 0.151349)
(-0.124193 -0.000452511 0.130029)
(-0.144014 -0.00279165 0.0950648)
(-0.158922 -0.00511487 0.0406374)
(-0.167819 -0.0065127 -0.0437832)
(-0.161795 -0.00570556 -0.163186)
(-0.137169 -0.00257785 -0.278334)
(-0.0525569 0.000391624 -0.259424)
(-0.0185607 0.00634592 0.095191)
(-0.0574134 0.00755812 0.150415)
(-0.0953345 0.00421866 0.150078)
(-0.121943 -0.00133612 0.128442)
(-0.141541 -0.00810775 0.0935361)
(-0.156704 -0.0149356 0.0398094)
(-0.166184 -0.0192373 -0.0429588)
(-0.160746 -0.0170959 -0.159623)
(-0.135882 -0.00780542 -0.272292)
(-0.0517823 0.00139621 -0.254318)
(-0.0179343 0.00978422 0.0940675)
(-0.0542197 0.0110334 0.146437)
(-0.0885556 0.00604346 0.145001)
(-0.11288 -0.001972 0.123669)
(-0.13184 -0.0117601 0.090325)
(-0.148226 -0.021919 0.0397639)
(-0.160457 -0.0288626 -0.0379029)
(-0.15824 -0.0264079 -0.147576)
(-0.134032 -0.0125022 -0.254277)
(-0.0507379 0.0025871 -0.239694)
(-0.0153249 0.010045 0.0868439)
(-0.0442695 0.0103595 0.129867)
(-0.069632 0.00553278 0.12686)
(-0.0880434 -0.00172088 0.108456)
(-0.104635 -0.010548 0.0813948)
(-0.122643 -0.0201272 0.0408574)
(-0.140319 -0.0274474 -0.0226255)
(-0.146186 -0.026226 -0.114674)
(-0.12706 -0.0133957 -0.206975)
(-0.0488258 0.0029966 -0.202105)
(-0.00827704 0.00454639 0.0562059)
(-0.0216739 0.00439287 0.0745879)
(-0.0307285 0.00231794 0.0704955)
(-0.0376878 -0.000592976 0.0609683)
(-0.0465381 -0.00404875 0.0490966)
(-0.0601029 -0.00787367 0.0316139)
(-0.077605 -0.0109841 0.00207832)
(-0.0902698 -0.0107316 -0.0453148)
(-0.0836613 -0.00586263 -0.0980716)
(-0.0344033 0.00101063 -0.108158)
(-0.0174607 -0.00637251 0.0819088)
(-0.0336399 -0.00580011 0.091107)
(-0.0294235 -0.00229458 0.0784054)
(-0.0241629 0.00246797 0.0624914)
(-0.023512 0.0078666 0.0473247)
(-0.0322114 0.0139665 0.0281634)
(-0.053372 0.0194847 -0.00444166)
(-0.0783905 0.0197283 -0.0633201)
(-0.0952911 0.0107076 -0.140184)
(-0.0410228 -0.00445086 -0.186324)
(-0.0283093 -0.0133748 0.120214)
(-0.0613077 -0.0129803 0.158378)
(-0.0662499 -0.00529062 0.145158)
(-0.0614943 0.00562005 0.11856)
(-0.0566231 0.0183271 0.0879429)
(-0.0578541 0.0321972 0.0472812)
(-0.0700413 0.0437029 -0.0170587)
(-0.0845192 0.0425259 -0.123834)
(-0.102722 0.0207166 -0.25626)
(-0.0375656 -0.0103977 -0.311868)
(-0.0314536 -0.0124425 0.128081)
(-0.0715269 -0.0134552 0.178197)
(-0.0831777 -0.00606413 0.167576)
(-0.0800825 0.00505078 0.138756)
(-0.0722801 0.0181971 0.103145)
(-0.0658362 0.0318389 0.0543754)
(-0.0673058 0.0417508 -0.021496)
(-0.0707391 0.0382544 -0.145302)
(-0.0896061 0.0162949 -0.297604)
(-0.0310562 -0.00842055 -0.352641)
(-0.0319704 -0.00784351 0.129053)
(-0.0740216 -0.00906077 0.182714)
(-0.0881918 -0.00436391 0.173885)
(-0.0857808 0.0029737 0.145455)
(-0.0766995 0.0117216 0.109062)
(-0.0668536 0.0205728 0.058008)
(-0.0639302 0.0264797 -0.0219259)
(-0.0637653 0.0234323 -0.152595)
(-0.0852247 0.00950797 -0.31278)
(-0.0301766 -0.00455667 -0.367847)
(-0.0318598 -0.00260056 0.128895)
(-0.0741062 -0.00310997 0.18336)
(-0.0888052 -0.00154978 0.175378)
(-0.0865298 0.000934795 0.147544)
(-0.0770941 0.00389958 0.111361)
(-0.0663653 0.00686684 0.0598434)
(-0.0625324 0.00876642 -0.0215427)
(-0.0620613 0.00764387 -0.15507)
(-0.0851751 0.00307729 -0.318328)
(-0.0307563 -0.00132568 -0.373408)
(-0.0318598 0.00260056 0.128895)
(-0.0741062 0.00310996 0.18336)
(-0.0888052 0.00154976 0.175378)
(-0.0865298 -0.000934814 0.147543)
(-0.0770941 -0.00389959 0.111361)
(-0.0663653 -0.00686685 0.0598434)
(-0.0625324 -0.00876642 -0.0215427)
(-0.0620613 -0.00764387 -0.15507)
(-0.0851751 -0.00307729 -0.318328)
(-0.0307563 0.00132569 -0.373408)
(-0.0319704 0.0078435 0.129053)
(-0.0740216 0.00906076 0.182714)
(-0.0881918 0.00436389 0.173885)
(-0.0857808 -0.00297371 0.145455)
(-0.0766995 -0.0117216 0.109062)
(-0.0668536 -0.0205728 0.058008)
(-0.0639302 -0.0264797 -0.0219259)
(-0.0637653 -0.0234323 -0.152595)
(-0.0852247 -0.00950796 -0.31278)
(-0.0301766 0.00455669 -0.367847)
(-0.0314536 0.0124425 0.128081)
(-0.0715269 0.0134552 0.178197)
(-0.0831777 0.00606411 0.167576)
(-0.0800825 -0.0050508 0.138756)
(-0.0722801 -0.0181971 0.103145)
(-0.0658362 -0.0318389 0.0543755)
(-0.0673058 -0.0417508 -0.021496)
(-0.0707391 -0.0382544 -0.145302)
(-0.0896061 -0.0162949 -0.297604)
(-0.0310562 0.00842056 -0.352641)
(-0.0283093 0.0133748 0.120214)
(-0.0613077 0.0129803 0.158378)
(-0.0662499 0.00529061 0.145158)
(-0.0614943 -0.00562006 0.11856)
(-0.0566231 -0.0183271 0.0879429)
(-0.0578541 -0.0321972 0.0472812)
(-0.0700413 -0.0437029 -0.0170587)
(-0.0845192 -0.0425259 -0.123833)
(-0.102722 -0.0207166 -0.25626)
(-0.0375656 0.0103977 -0.311868)
(-0.0174607 0.00637251 0.0819088)
(-0.0336399 0.00580011 0.091107)
(-0.0294235 0.00229458 0.0784054)
(-0.0241629 -0.00246797 0.0624914)
(-0.023512 -0.0078666 0.0473247)
(-0.0322114 -0.0139665 0.0281634)
(-0.053372 -0.0194847 -0.00444166)
(-0.0783905 -0.0197283 -0.0633201)
(-0.0952911 -0.0107076 -0.140184)
(-0.0410228 0.00445085 -0.186324)
(-0.0242325 -0.0107146 0.152038)
(-0.0233853 -0.0100117 0.0994967)
(0.0198021 -0.00534058 0.0637743)
(0.0496042 0.000642299 0.0427305)
(0.0683452 0.00676478 0.0273277)
(0.0718883 0.013555 0.0109484)
(0.0534101 0.0205521 -0.0162198)
(0.020526 0.0209544 -0.0725534)
(-0.0434856 0.00756499 -0.167142)
(-0.00709062 -0.0155171 -0.254789)
(-0.0437735 -0.0208485 0.211273)
(-0.0480788 -0.0210654 0.167609)
(0.00922819 -0.0120977 0.123068)
(0.0586374 -2.02884e-05 0.0907355)
(0.0989327 0.0132232 0.0631709)
(0.125959 0.0275621 0.0326767)
(0.126642 0.0417487 -0.0135525)
(0.112505 0.0425647 -0.102335)
(0.0287818 0.014862 -0.249929)
(0.039801 -0.0271776 -0.364178)
(-0.0489339 -0.017375 0.220715)
(-0.0573466 -0.0201369 0.185147)
(-0.000797363 -0.0128245 0.142446)
(0.0528056 -0.00193069 0.108912)
(0.101033 0.0108683 0.0783414)
(0.140288 0.0243647 0.0429957)
(0.153436 0.0363705 -0.00962407)
(0.152549 0.035348 -0.10753)
(0.0651258 0.0104059 -0.271036)
(0.057741 -0.018367 -0.391092)
(-0.0494071 -0.0103306 0.221152)
(-0.0585915 -0.0129475 0.187938)
(-0.00281071 -0.00873858 0.146877)
(0.0515729 -0.00199047 0.114131)
(0.102002 0.00613201 0.0834573)
(0.145333 0.0147037 0.0468235)
(0.162278 0.0218997 -0.00826173)
(0.164814 0.0208391 -0.109762)
(0.0736999 0.00647715 -0.278814)
(0.0604167 -0.00911143 -0.40056)
(-0.0490813 -0.00333425 0.220631)
(-0.0579771 -0.00434784 0.187817)
(-0.00219226 -0.00301628 0.147448)
(0.0524282 -0.00080429 0.115296)
(0.103359 0.00189322 0.0849359)