/*--------------------------------*- C++ -*----------------------------------*\
  =========                 |
  \\      /  F ield         | OpenFOAM: The Open Source CFD Toolbox
   \\    /   O peration     | Website:  https://openfoam.org
    \\  /    A nd           | Version:  9
     \\/     M anipulation  |
\*---------------------------------------------------------------------------*/
FoamFile
{
    format      ascii;
    class       volScalarField;
    location    "0.81";
    object      p;
}
// * * * * * * * * * * * * * * * * * * * * * * * * * * * * * * * * * * * * * //

dimensions      [0 2 -2 0 0 0 0];

internalField   nonuniform List<scalar> 
1000
(
4.97476e-06
-0.000485319
-0.000175991
0.000884185
0.00277066
0.00535665
0.00818096
0.0104798
0.0115492
0.0106922
0.000176762
-0.000729076
-0.000528123
0.000577981
0.00264737
0.00553375
0.00870098
0.0112185
0.0122302
0.0108225
0.00096129
-0.0002217
-5.96467e-05
0.00114774
0.00346686
0.00672372
0.0102732
0.0129356
0.0136977
0.011546
0.00181046
0.000442367
0.00059066
0.00189951
0.00444726
0.00804365
0.0118592
0.0145757
0.0150751
0.0123289
0.00234416
0.000888443
0.00103565
0.00240475
0.00507828
0.00884839
0.0128098
0.0155361
0.0158773
0.0128157
0.0023442
0.000888472
0.00103567
0.00240476
0.00507829
0.0088484
0.0128098
0.0155361
0.0158773
0.0128157
0.00181057
0.000442454
0.000590716
0.00189954
0.00444728
0.00804366
0.0118592
0.0145757
0.0150751
0.0123289
0.000961524
-0.000221546
-5.95464e-05
0.00114781
0.0034669
0.00672375
0.0102732
0.0129357
0.0136977
0.011546
0.000177206
-0.000728846
-0.000527974
0.000578078
0.00264743
0.0055338
0.00870101
0.0112185
0.0122302
0.0108225
6.33657e-06
-0.000484929
-0.000175783
0.000884313
0.00277074
0.00535671
0.008181
0.0104798
0.0115493
0.0106922
0.000416506
-1.78337e-05
0.000310571
0.00123965
0.00287422
0.00516705
0.00775322
0.00996349
0.0110538
0.00991069
0.000956149
3.12361e-05
0.000277051
0.00119767
0.0028687
0.00525667
0.00798722
0.0103238
0.0113744
0.00957588
0.00218102
0.000844262
0.0010197
0.00193518
0.00367445
0.0062107
0.00917602
0.0115905
0.0124344
0.00988295
0.0033458
0.00169274
0.00180434
0.00271708
0.00452973
0.00723408
0.0103705
0.0128144
0.0134492
0.010346
0.00403998
0.00221795
0.00229336
0.00320446
0.00505879
0.00786427
0.0110874
0.0135329
0.0140435
0.0106669
0.00404001
0.00221797
0.00229338
0.00320447
0.0050588
0.00786428
0.0110874
0.0135329
0.0140435
0.0106669
0.00334588
0.00169281
0.00180438
0.00271711
0.00452975
0.00723409
0.0103705
0.0128144
0.0134492
0.010346
0.00218117
0.000844378
0.00101978
0.00193523
0.00367449
0.00621073
0.00917604
0.0115905
0.0124345
0.00988295
0.000956385
3.14001e-05
0.000277168
0.00119775
0.00286876
0.00525671
0.00798725
0.0103239
0.0113745
0.00957591
0.000416892
-1.76117e-05
0.000310722
0.00123975
0.00287429
0.0051671
0.00775325
0.00996351
0.0110538
0.0099107
-0.000931716
-0.00150023
-0.00129534
-0.000573525
0.000879375
0.00319175
0.0061446
0.0090509
0.0108154
0.0095048
-6.89058e-05
-0.00129611
-0.001177
-0.000458213
0.00103541
0.00346874
0.00662057
0.00969954
0.0113902
0.00893112
0.00167856
-0.000142139
-0.000155319
0.000465742
0.00193123
0.00446387
0.00783581
0.0110462
0.0125379
0.00903038
0.0032728
0.000996784
0.000854526
0.00137884
0.00282527
0.0054641
0.00896664
0.0122252
0.0135146
0.00930558
0.00420118
0.00168208
0.00146374
0.00193107
0.00336739
0.00605427
0.00961969
0.0128827
0.0140528
0.00951814
0.0042012
0.00168209
0.00146375
0.00193108
0.0033674
0.00605428
0.0096197
0.0128827
0.0140528
0.00951814
0.00327286
0.000996834
0.000854559
0.00137886
0.00282529
0.00546411
0.00896664
0.0122252
0.0135146
0.00930559
0.00167867
-0.000142055
-0.00015526
0.000465784
0.00193126
0.0044639
0.00783585
0.0110462
0.0125379
0.00903041
-6.87524e-05
-0.00129599
-0.00117692
-0.000458149
0.00103546
0.00346877
0.00662059
0.00969954
0.0113902
0.00893117
-0.000931509
-0.00150008
-0.00129523
-0.000573446
0.000879433
0.00319179
0.00614462
0.00905091
0.0108154
0.0095048
-0.00443224
-0.00512844
-0.00510207
-0.00466323
-0.00341337
-0.000915868
0.00289196
0.00738702
0.0108547
0.00995798
-0.00324756
-0.00475315
-0.00481501
-0.00436112
-0.00303763
-0.000361058
0.00375018
0.00857835
0.0119755
0.00934192
-0.000970699
-0.00325074
-0.00355371
-0.00335506
-0.00222705
0.000464277
0.0047247
0.00981522
0.0131458
0.00933858
0.00106506
-0.00180677
-0.002346
-0.00239996
-0.00146823
0.0011451
0.00552946
0.0107453
0.0139741
0.0094715
0.00223556
-0.000950747
-0.00162904
-0.00182999
-0.00100597
0.00156721
0.00596769
0.0112151
0.0143801
0.00958554
0.00223558
-0.000950736
-0.00162904
-0.00182999
-0.00100596
0.00156722
0.0059677
0.0112151
0.0143801
0.00958555
0.0010651
-0.00180674
-0.00234598
-0.00239995
-0.00146822
0.00114511
0.00552947
0.0107453
0.0139741
0.00947152
-0.000970631
-0.00325068
-0.00355367
-0.00335503
-0.00222703
0.000464306
0.00472474
0.00981528
0.0131459
0.00933861
-0.00324746
-0.00475306
-0.00481495
-0.00436107
-0.00303759
-0.00036103
0.00375018
0.00857832
0.0119755
0.0093419
-0.00443211
-0.00512834
-0.00510199
-0.00466317
-0.00341332
-0.000915835
0.00289197
0.007387
0.0108546
0.00995793
-0.0107673
-0.0114189
-0.0114927
-0.0113491
-0.0103626
-0.00760138
-0.00243807
0.00481824
0.0116477
0.012846
-0.00930515
-0.0108904
-0.011073
-0.0109329
-0.00988069
-0.00699696
-0.00153153
0.00627883
0.0132725
0.012618
-0.0066149
-0.00913947
-0.00974128
-0.0101289
-0.00961635
-0.00705813
-0.00160519
0.00664575
0.0139633
0.0126225
-0.00425349
-0.00748757
-0.00848421
-0.00936182
-0.00931922
-0.00704583
-0.0016884
0.00678058
0.014288
0.0126731
-0.00291254
-0.00652015
-0.00774355
-0.0088939
-0.00910514
-0.0070204
-0.00171807
0.00681517
0.0143918
0.0127025
-0.00291254
-0.00652014
-0.00774354
-0.0088939
-0.00910513
-0.00702039
-0.00171806
0.00681518
0.0143918
0.0127025
-0.00425347
-0.00748755
-0.00848419
-0.00936181
-0.0093192
-0.00704581
-0.00168838
0.00678061
0.0142881
0.0126731
-0.00661486
-0.00913943
-0.00974125
-0.0101289
-0.00961633
-0.00705811
-0.00160516
0.00664579
0.0139634
0.0126225
-0.00930508
-0.0108904
-0.011073
-0.0109329
-0.00988065
-0.00699694
-0.00153152
0.00627883
0.0132727
0.0126181
-0.0107672
-0.0114189
-0.0114926
-0.0113491
-0.0103626
-0.00760135
-0.00243806
0.00481821
0.0116476
0.012846
-0.0205569
-0.0206252
-0.0204292
-0.0204242
-0.0196803
-0.0166807
-0.00977626
0.00156295
0.0144028
0.0210634
-0.0188503
-0.0199977
-0.0199949
-0.0201219
-0.0195757
-0.0168525
-0.0101276
0.00173523
0.015227
0.0214171
-0.0158857
-0.0181182
-0.0187883
-0.0198516
-0.020368
-0.0186006
-0.0123772
7.60193e-06
0.0145876
0.0214298
-0.0133476
-0.0163729
-0.0176319
-0.0194857
-0.0208408
-0.0197987
-0.0139433
-0.00130833
0.0139175
0.0213441
-0.0119297
-0.0153646
-0.016949
-0.0192178
-0.0209875
-0.020262
-0.0146398
-0.00194466
0.0135465
0.021267
-0.0119297
-0.0153645
-0.016949
-0.0192178
-0.0209875
-0.020262
-0.0146398
-0.00194466
0.0135465
0.021267
-0.0133475
-0.0163729
-0.0176319
-0.0194857
-0.0208408
-0.0197986
-0.0139432
-0.00130832
0.0139175
0.0213441
-0.0158857
-0.0181181
-0.0187882
-0.0198516
-0.020368
-0.0186006
-0.0123772
7.62213e-06
0.0145876
0.0214298
-0.0188502
-0.0199976
-0.0199949
-0.0201219
-0.0195757
-0.0168525
-0.0101276
0.00173525
0.015227
0.0214171
-0.0205569
-0.0206252
-0.0204291
-0.0204242
-0.0196803
-0.0166807
-0.00977623
0.00156295
0.0144028
0.0210634
-0.0348746
-0.0326222
-0.0311606
-0.0307477
-0.030098
-0.0269527
-0.0183976
-0.00178287
0.0201618
0.0388923
-0.0327252
-0.0318465
-0.0308148
-0.0309049
-0.0310158
-0.0290207
-0.0217255
-0.00529595
0.0178184
0.039002
-0.0294676
-0.0297729
-0.0297155
-0.0312365
-0.0330833
-0.0329049
-0.02694
-0.0102032
0.0147433
0.0388425
-0.0268097
-0.027925
-0.028631
-0.0312284
-0.0342826
-0.0352614
-0.0300801
-0.0131641
0.0128257
0.0387034
-0.0253653
-0.026887
-0.027996
-0.0311209
-0.0347262
-0.036207
-0.0313726
-0.0144143
0.0119941
0.0386213
-0.0253653
-0.026887
-0.027996
-0.0311209
-0.0347262
-0.036207
-0.0313725
-0.0144143
0.0119941
0.0386213
-0.0268097
-0.027925
-0.028631
-0.0312283
-0.0342825
-0.0352614
-0.03008
-0.0131641
0.0128257
0.0387034
-0.0294676
-0.0297729
-0.0297155
-0.0312365
-0.0330833
-0.0329049
-0.02694
-0.0102031
0.0147433
0.0388425
-0.0327252
-0.0318464
-0.0308148
-0.0309048
-0.0310157
-0.0290207
-0.0217255
-0.00529596
0.0178184
0.039002
-0.0348746
-0.0326222
-0.0311606
-0.0307477
-0.030098
-0.0269527
-0.0183976
-0.0017829
0.0201618
0.0388923
-0.0575269
-0.046976
-0.0421902
-0.0401095
-0.0389965
-0.0354928
-0.0256343
-0.00310344
0.0303026
0.0732102
-0.0542547
-0.0455066
-0.0415879
-0.0407906
-0.0412646
-0.0400063
-0.0330912
-0.012104
0.022535
0.0736723
-0.0500894
-0.0425797
-0.0398464
-0.0410423
-0.0439045
-0.045089
-0.040261
-0.01918
0.0178171
0.0751159
-0.0469965
-0.0402457
-0.0383389
-0.0408246
-0.0451776
-0.0477373
-0.0439733
-0.0225822
0.0158354
0.0764751
-0.0454107
-0.0390239
-0.0375363
-0.0406124
-0.0455927
-0.0486928
-0.0453686
-0.0238254
0.0152035
0.0771333
-0.0454107
-0.0390239
-0.0375363
-0.0406124
-0.0455927
-0.0486928
-0.0453686
-0.0238254
0.0152035
0.0771333
-0.0469965
-0.0402456
-0.0383389
-0.0408246
-0.0451776
-0.0477372
-0.0439732
-0.0225822
0.0158354
0.0764751
-0.0500894
-0.0425797
-0.0398464
-0.0410423
-0.0439045
-0.045089
-0.040261
-0.01918
0.0178171
0.0751159
-0.0542547
-0.0455066
-0.0415879
-0.0407906
-0.0412645
-0.0400063
-0.0330912
-0.012104
0.022535
0.0736723
-0.0575269
-0.046976
-0.0421901
-0.0401095
-0.0389965
-0.0354928
-0.0256343
-0.00310345
0.0303026
0.0732102
-0.0890398
-0.0612108
-0.0519448
-0.0463192
-0.0435858
-0.0390153
-0.0263424
0.00468111
0.0516547
0.15088
-0.0813671
-0.0572433
-0.0505218
-0.0473201
-0.0469621
-0.0451315
-0.0361825
-0.00610532
0.0452859
0.162526
-0.0749546
-0.0524156
-0.0472558
-0.0465854
-0.0491625
-0.0499886
-0.0431089
-0.0114006
0.0463391
0.171591
-0.0709561
-0.0491161
-0.0448491
-0.0457039
-0.0499823
-0.052275
-0.046216
-0.013213
0.0476482
0.177302
-0.0691091
-0.0475367
-0.0436899
-0.0452189
-0.050202
-0.0530773
-0.0473054
-0.0137816
0.0483688
0.179784
-0.0691091
-0.0475367
-0.0436899
-0.0452189
-0.050202
-0.0530773
-0.0473054
-0.0137816
0.0483687
0.179784
-0.0709561
-0.0491161
-0.0448491
-0.0457038
-0.0499823
-0.052275
-0.046216
-0.013213
0.0476482
0.177302
-0.0749546
-0.0524156
-0.0472558
-0.0465854
-0.0491625
-0.0499886
-0.0431088
-0.0114005
0.0463391
0.171591
-0.0813671
-0.0572433
-0.0505218
-0.0473201
-0.0469621
-0.0451315
-0.0361824
-0.00610531
0.0452859
0.162526
-0.0890398
-0.0612108
-0.0519448
-0.0463191
-0.0435857
-0.0390153
-0.0263424
0.00468111
0.0516547
0.15088
-0.199285
-0.073876
-0.0488621
-0.0403967
-0.0361059
-0.0293499
-0.0124411
0.0327906
0.11903
0.324662
-0.186979
-0.061134
-0.0410408
-0.0370022
-0.0363808
-0.0329588
-0.0184478
0.0296178
0.129537
0.359301
-0.178067
-0.0521907
-0.0343676
-0.0334194
-0.0359964
-0.0349579
-0.0214311
0.029731
0.138862
0.380172
-0.172919
-0.0471252
-0.0303248
-0.0311008
-0.0355121
-0.0357882
-0.0225851
0.0302166
0.143487
0.390204
-0.170656
-0.0449455
-0.0285716
-0.0300746
-0.0352588
-0.0360944
-0.0230238
0.0304293
0.14525
0.394027
-0.170656
-0.0449455
-0.0285716
-0.0300746
-0.0352588
-0.0360944
-0.0230238
0.0304293
0.14525
0.394027
-0.172919
-0.0471252
-0.0303248
-0.0311008
-0.0355121
-0.0357882
-0.0225851
0.0302166
0.143487
0.390204
-0.178067
-0.0521907
-0.0343676
-0.0334194
-0.0359964
-0.0349579
-0.021431
0.029731
0.138862
0.380172
-0.186979
-0.061134
-0.0410407
-0.0370022
-0.0363808
-0.0329588
-0.0184477
0.0296178
0.129537
0.359301
-0.199284
-0.073876
-0.0488621
-0.0403967
-0.0361058
-0.0293499
-0.0124411
0.0327906
0.11903
0.324662
)
;

boundaryField
{
    top
    {
        type            zeroGradient;
    }
    others
    {
        type            zeroGradient;
    }
}


// ************************************************************************* //
