/*--------------------------------*- C++ -*----------------------------------*\
  =========                 |
  \\      /  F ield         | OpenFOAM: The Open Source CFD Toolbox
   \\    /   O peration     | Website:  https://openfoam.org
    \\  /    A nd           | Version:  9
     \\/     M anipulation  |
\*---------------------------------------------------------------------------*/
FoamFile
{
    format      ascii;
    class       volVectorField;
    location    "0.29";
    object      U;
}
// * * * * * * * * * * * * * * * * * * * * * * * * * * * * * * * * * * * * * //

dimensions      [0 1 -1 0 0 0 0];

internalField   nonuniform List<vector> 
1000
(
(-0.000136871 -0.000337093 0.000379758)
(-0.0018221 -0.000223529 0.0010359)
(-0.00502252 -0.000161981 0.00125281)
(-0.00814619 -0.000234398 0.00123672)
(-0.0106021 -0.000444203 0.00105492)
(-0.0117085 -0.000759261 0.000675624)
(-0.0108016 -0.00108501 0.000102065)
(-0.00763999 -0.00123853 -0.000502824)
(-0.00288292 -0.00102025 -0.000668097)
(-0.000126972 -0.000282336 -2.81414e-06)
(-0.000403882 -0.00105023 0.000618247)
(-0.00383118 -0.00106232 0.00204306)
(-0.0100501 -0.00100205 0.00249826)
(-0.0159984 -0.00117233 0.00233714)
(-0.0205078 -0.00162905 0.00172755)
(-0.0223717 -0.00231073 0.000653163)
(-0.0204539 -0.00299798 -0.000801983)
(-0.0143993 -0.00326497 -0.00210476)
(-0.00555696 -0.00268299 -0.00217837)
(-0.000363999 -0.000943588 -0.000282974)
(-0.000532 -0.00141692 0.000447374)
(-0.0048684 -0.0017658 0.00216087)
(-0.0126618 -0.0017982 0.00271528)
(-0.020045 -0.00196924 0.00245641)
(-0.0255628 -0.00239768 0.00158594)
(-0.0277383 -0.00303725 0.000103363)
(-0.0251679 -0.0036444 -0.00185225)
(-0.0174547 -0.00381075 -0.0034737)
(-0.00640509 -0.00313714 -0.00330653)
(-0.000210394 -0.00132263 -0.00049999)
(-0.000564471 -0.00112069 0.000229047)
(-0.00532351 -0.00149971 0.00200283)
(-0.0139058 -0.0015568 0.00259314)
(-0.022013 -0.0016677 0.00229861)
(-0.0280392 -0.0019399 0.00131823)
(-0.0303367 -0.00234692 -0.00035079)
(-0.0273629 -0.00271093 -0.00254061)
(-0.0187355 -0.00277848 -0.00428745)
(-0.00652871 -0.00229928 -0.00392995)
(2.15067e-05 -0.00105431 -0.000596363)
(-0.000565746 -0.000417753 0.000103759)
(-0.00548109 -0.000574842 0.00187733)
(-0.0143799 -0.0006007 0.0024808)
(-0.022783 -0.000636952 0.00218092)
(-0.0290182 -0.000725576 0.0011683)
(-0.0313623 -0.000858237 -0.000566813)
(-0.0282072 -0.000976989 -0.00283715)
(-0.0191804 -0.000993557 -0.00462345)
(-0.00648851 -0.000825949 -0.00417699)
(0.00016172 -0.000393832 -0.000626563)
(-0.000565745 0.00041779 0.00010376)
(-0.00548109 0.000574864 0.00187733)
(-0.0143799 0.000600717 0.0024808)
(-0.022783 0.000636965 0.00218092)
(-0.0290182 0.000725585 0.0011683)
(-0.0313623 0.000858244 -0.000566813)
(-0.0282072 0.000976994 -0.00283715)
(-0.0191804 0.000993559 -0.00462345)
(-0.00648851 0.000825949 -0.00417699)
(0.00016172 0.00039383 -0.000626563)
(-0.000564468 0.00112072 0.000229052)
(-0.00532351 0.00149973 0.00200283)
(-0.0139058 0.00155681 0.00259314)
(-0.022013 0.00166771 0.00229861)
(-0.0280392 0.00193991 0.00131823)
(-0.0303367 0.00234692 -0.000350792)
(-0.027363 0.00271094 -0.00254061)
(-0.0187355 0.00277849 -0.00428745)
(-0.00652871 0.00229928 -0.00392995)
(2.15066e-05 0.00105431 -0.000596364)
(-0.000531989 0.00141695 0.000447388)
(-0.0048684 0.00176581 0.00216089)
(-0.0126618 0.00179821 0.00271529)
(-0.020045 0.00196925 0.00245641)
(-0.0255628 0.00239769 0.00158594)
(-0.0277383 0.00303726 0.00010336)
(-0.0251679 0.0036444 -0.00185226)
(-0.0174547 0.00381076 -0.00347371)
(-0.00640509 0.00313714 -0.00330653)
(-0.000210394 0.00132262 -0.000499991)
(-0.000403841 0.00105021 0.00061829)
(-0.00383115 0.0010623 0.00204309)
(-0.0100501 0.00100205 0.00249827)
(-0.0159984 0.00117233 0.00233714)
(-0.0205078 0.00162906 0.00172755)
(-0.0223718 0.00231074 0.00065316)
(-0.0204539 0.00299798 -0.000801987)
(-0.0143993 0.00326497 -0.00210476)
(-0.00555696 0.00268299 -0.00217837)
(-0.000363999 0.000943588 -0.000282974)
(-0.000136807 0.000337032 0.000379824)
(-0.00182207 0.000223494 0.00103593)
(-0.00502255 0.000161976 0.00125282)
(-0.00814622 0.000234399 0.00123672)
(-0.0106021 0.000444206 0.00105492)
(-0.0117086 0.000759263 0.000675623)
(-0.0108016 0.00108501 0.000102064)
(-0.00764 0.00123853 -0.000502824)
(-0.00288292 0.00102026 -0.000668098)
(-0.000126973 0.000282338 -2.81236e-06)
(-0.00074044 -0.0009764 0.0030434)
(-0.00438089 -0.00107991 0.00589024)
(-0.0102883 -0.00103044 0.00662852)
(-0.015917 -0.00104211 0.00623409)
(-0.0202867 -0.00117216 0.00499119)
(-0.0222987 -0.00142178 0.00284356)
(-0.020864 -0.00170566 -9.66943e-05)
(-0.0153975 -0.00175862 -0.00305066)
(-0.00675428 -0.00129451 -0.00416796)
(-0.000925243 -7.64124e-05 -0.0016304)
(-0.00199995 -0.00256748 0.00497858)
(-0.0103139 -0.00317301 0.0109074)
(-0.0230783 -0.0031511 0.01239)
(-0.0349181 -0.00319582 0.0110842)
(-0.0436782 -0.00351039 0.00768262)
(-0.0472678 -0.00408807 0.00228178)
(-0.0437147 -0.00470786 -0.00453894)
(-0.0321481 -0.00474903 -0.0105806)
(-0.0145775 -0.00359278 -0.0115891)
(-0.00234816 -0.000769414 -0.00411273)
(-0.00269102 -0.0030218 0.00500175)
(-0.0136547 -0.00412607 0.0120563)
(-0.0302638 -0.00421975 0.0137746)
(-0.045423 -0.00426841 0.0118401)
(-0.05637 -0.00458075 0.00708378)
(-0.0605517 -0.00515224 -0.000282062)
(-0.0555675 -0.00570898 -0.00930937)
(-0.0404619 -0.00565332 -0.0167899)
(-0.0180314 -0.00439726 -0.0169631)
(-0.00274827 -0.00149073 -0.00575513)
(-0.00297287 -0.00223821 0.00457873)
(-0.0152131 -0.00321652 0.0118941)
(-0.03376 -0.00333084 0.0136624)
(-0.0505661 -0.00335459 0.0114227)
(-0.0625678 -0.00354845 0.00601003)
(-0.066959 -0.0039166 -0.00231977)
(-0.0611289 -0.00423714 -0.0124127)
(-0.0441392 -0.00415144 -0.0204903)
(-0.019242 -0.00328283 -0.0199802)
(-0.00269618 -0.00129305 -0.0066019)
(-0.00305463 -0.000810268 0.00428525)
(-0.0157732 -0.00119058 0.0116184)
(-0.0350935 -0.00123912 0.0133976)
(-0.0525596 -0.00124387 0.0110576)
(-0.0649828 -0.00130455 0.00541224)
(-0.0694415 -0.00142483 -0.00327567)
(-0.0632395 -0.0015245 -0.0137605)
(-0.0454616 -0.00148723 -0.0220415)
(-0.0195675 -0.00118742 -0.0212114)
(-0.00259865 -0.000498712 -0.00692907)
(-0.00305463 0.000810293 0.00428525)
(-0.0157732 0.00119058 0.0116184)
(-0.0350935 0.00123912 0.0133976)
(-0.0525596 0.00124388 0.0110576)
(-0.0649828 0.00130456 0.00541224)
(-0.0694415 0.00142483 -0.00327567)
(-0.0632395 0.00152451 -0.0137605)
(-0.0454616 0.00148724 -0.0220415)
(-0.0195675 0.00118742 -0.0212114)
(-0.00259865 0.000498713 -0.00692907)
(-0.00297286 0.00223823 0.00457874)
(-0.0152131 0.00321652 0.0118941)
(-0.03376 0.00333084 0.0136624)
(-0.0505661 0.00335459 0.0114227)
(-0.0625678 0.00354845 0.00601003)
(-0.066959 0.00391661 -0.00231977)
(-0.0611289 0.00423715 -0.0124127)
(-0.0441392 0.00415145 -0.0204903)
(-0.019242 0.00328284 -0.0199802)
(-0.00269618 0.00129305 -0.0066019)
(-0.00269101 0.00302182 0.00500176)
(-0.0136547 0.00412606 0.0120563)
(-0.0302638 0.00421975 0.0137746)
(-0.045423 0.00426842 0.0118401)
(-0.05637 0.00458076 0.00708377)
(-0.0605517 0.00515225 -0.000282067)
(-0.0555675 0.00570899 -0.00930937)
(-0.0404619 0.00565333 -0.0167899)
(-0.0180314 0.00439727 -0.0169631)
(-0.00274827 0.00149073 -0.00575513)
(-0.00199992 0.00256747 0.00497861)
(-0.0103139 0.00317298 0.0109074)
(-0.0230783 0.00315109 0.01239)
(-0.0349181 0.00319582 0.0110842)
(-0.0436782 0.00351039 0.00768262)
(-0.0472678 0.00408808 0.00228177)
(-0.0437147 0.00470786 -0.00453894)
(-0.0321481 0.00474904 -0.0105806)
(-0.0145775 0.00359278 -0.0115891)
(-0.00234816 0.000769416 -0.00411272)
(-0.000740405 0.000976364 0.00304344)
(-0.00438087 0.00107988 0.00589027)
(-0.0102883 0.00103043 0.00662852)
(-0.015917 0.00104211 0.00623408)
(-0.0202867 0.00117216 0.00499119)
(-0.0222987 0.00142178 0.00284356)
(-0.020864 0.00170566 -9.66937e-05)
(-0.0153975 0.00175862 -0.00305066)
(-0.00675428 0.00129452 -0.00416796)
(-0.000925244 7.64133e-05 -0.00163039)
(-0.00118806 -0.00156141 0.00847981)
(-0.00622099 -0.00183999 0.0148098)
(-0.0139705 -0.00177859 0.0161613)
(-0.0213388 -0.00170484 0.0149588)
(-0.0273549 -0.00173249 0.0118494)
(-0.0307612 -0.00191015 0.00670879)
(-0.0299743 -0.00217058 -0.000326462)
(-0.0235396 -0.00221439 -0.0076216)
(-0.0116298 -0.00161037 -0.0112051)
(-0.00219483 8.89343e-05 -0.00611452)
(-0.00328449 -0.00395371 0.0139216)
(-0.0153783 -0.00503875 0.0268169)
(-0.0329907 -0.00496619 0.0294139)
(-0.0492118 -0.00476179 0.0258633)
(-0.0616926 -0.00478071 0.0176982)
(-0.0679323 -0.00511688 0.00513075)
(-0.0650144 -0.00559108 -0.0107419)
(-0.0505382 -0.00556034 -0.0255305)
(-0.025431 -0.00416259 -0.0297896)
(-0.00512679 -0.000509066 -0.0138697)
(-0.00449966 -0.00446914 0.0149068)
(-0.020781 -0.00616831 0.0301696)
(-0.0441542 -0.00618163 0.0330304)
(-0.0652675 -0.005897 0.0278598)
(-0.0810317 -0.00580891 0.0165067)
(-0.0883566 -0.00601019 -0.000554446)
(-0.083726 -0.00629044 -0.0213994)
(-0.0643814 -0.00611028 -0.03973)
(-0.0319491 -0.00473618 -0.0427282)
(-0.00621344 -0.0013306 -0.0186616)
(-0.00503007 -0.00321948 0.0146258)
(-0.0233691 -0.00464736 0.0304887)
(-0.0496692 -0.00469318 0.0333318)
(-0.0732087 -0.00444912 0.0273385)
(-0.0905338 -0.00431735 0.0144139)
(-0.0982509 -0.00436679 -0.00483143)
(-0.0925606 -0.0044356 -0.0281046)
(-0.0706182 -0.00424575 -0.0479555)
(-0.0345061 -0.0033636 -0.049828)
(-0.00642038 -0.00118633 -0.021139)
(-0.00519701 -0.00114824 0.0142986)
(-0.0243105 -0.00169131 0.0302417)
(-0.0517726 -0.00171326 0.0330591)
(-0.0762731 -0.00161732 0.0267747)
(-0.0942094 -0.00155513 0.0132774)
(-0.102054 -0.00155293 -0.00678215)
(-0.0958988 -0.00155388 -0.0309447)
(-0.0728894 -0.00147808 -0.0513311)
(-0.0353193 -0.00118647 -0.0526826)
(-0.00640772 -0.000460639 -0.0221055)
(-0.00519701 0.00114826 0.0142986)
(-0.0243105 0.00169131 0.0302417)
(-0.0517726 0.00171325 0.0330591)
(-0.0762731 0.00161732 0.0267747)
(-0.0942094 0.00155514 0.0132774)
(-0.102054 0.00155293 -0.00678215)
(-0.0958988 0.00155389 -0.0309447)
(-0.0728894 0.00147808 -0.0513311)
(-0.0353193 0.00118648 -0.0526826)
(-0.00640772 0.000460641 -0.0221055)
(-0.00503006 0.0032195 0.0146258)
(-0.0233691 0.00464735 0.0304887)
(-0.0496692 0.00469318 0.0333318)
(-0.0732087 0.00444912 0.0273385)
(-0.0905338 0.00431735 0.0144139)
(-0.0982509 0.00436679 -0.00483143)
(-0.0925606 0.0044356 -0.0281046)
(-0.0706181 0.00424576 -0.0479555)
(-0.0345061 0.00336361 -0.049828)
(-0.00642038 0.00118633 -0.0211389)
(-0.00449965 0.00446915 0.0149068)
(-0.020781 0.0061683 0.0301696)
(-0.0441542 0.00618162 0.0330304)
(-0.0652674 0.005897 0.0278598)
(-0.0810317 0.00580891 0.0165067)
(-0.0883565 0.00601019 -0.00055445)
(-0.083726 0.00629045 -0.0213994)
(-0.0643814 0.00611029 -0.03973)
(-0.0319491 0.00473619 -0.0427282)
(-0.00621344 0.00133061 -0.0186616)
(-0.00328448 0.00395371 0.0139216)
(-0.0153783 0.00503874 0.0268169)
(-0.0329907 0.00496619 0.0294139)
(-0.0492118 0.00476179 0.0258633)
(-0.0616926 0.00478072 0.0176982)
(-0.0679323 0.00511689 0.00513074)
(-0.0650144 0.00559108 -0.0107419)
(-0.0505382 0.00556035 -0.0255305)
(-0.025431 0.00416259 -0.0297896)
(-0.00512679 0.000509066 -0.0138697)
(-0.00118805 0.00156141 0.00847979)
(-0.00622099 0.00183998 0.0148098)
(-0.0139705 0.00177859 0.0161613)
(-0.0213388 0.00170484 0.0149588)
(-0.0273549 0.00173249 0.0118494)
(-0.0307612 0.00191015 0.00670879)
(-0.0299744 0.00217058 -0.00032646)
(-0.0235396 0.00221439 -0.0076216)
(-0.0116298 0.00161036 -0.0112051)
(-0.00219483 -8.89355e-05 -0.00611451)
(-0.00165762 -0.00217627 0.0158186)
(-0.00798783 -0.00258923 0.0263988)
(-0.0173489 -0.00244683 0.0283321)
(-0.0263609 -0.00219926 0.0262274)
(-0.0343983 -0.00201917 0.0212027)
(-0.0402701 -0.00201631 0.0127949)
(-0.0416938 -0.00218799 0.000639402)
(-0.0356435 -0.00238256 -0.0132459)
(-0.0204058 -0.00190012 -0.0219319)
(-0.0050326 0.000106412 -0.0144147)
(-0.00455333 -0.00541203 0.0259386)
(-0.0201618 -0.00687413 0.0473358)
(-0.0421653 -0.00654811 0.0509937)
(-0.0626088 -0.0057998 0.0448633)
(-0.079559 -0.00513501 0.0314917)
(-0.0904158 -0.00479508 0.0106742)
(-0.090998 -0.00479033 -0.0169238)
(-0.0760612 -0.00493293 -0.0451668)
(-0.0433942 -0.00407453 -0.0574487)
(-0.0106815 -0.000383892 -0.0315618)
(-0.00625109 -0.00599167 0.0283217)
(-0.0274665 -0.00816169 0.0536218)
(-0.0570171 -0.00782163 0.0575596)
(-0.0838833 -0.00677658 0.0487226)
(-0.105358 -0.00569267 0.0301791)
(-0.118086 -0.00483252 0.00202069)
(-0.11708 -0.00436918 -0.0340239)
(-0.0963587 -0.00426249 -0.0690867)
(-0.0541565 -0.00378008 -0.0807753)
(-0.0129249 -0.00107012 -0.0414631)
(-0.00699856 -0.00424602 0.0283988)
(-0.0309724 -0.00602216 0.0547648)
(-0.0643479 -0.00578173 0.0586319)
(-0.0943558 -0.00492485 0.0484596)
(-0.11789 -0.0039794 0.0274274)
(-0.131311 -0.00314485 -0.00422985)
(-0.129193 -0.00262349 -0.0441697)
(-0.105306 -0.00248179 -0.0821196)
(-0.058488 -0.00234924 -0.0928482)
(-0.0136098 -0.000917234 -0.0463471)
(-0.00723375 -0.00150014 0.0281391)
(-0.032235 -0.0021674 0.0547055)
(-0.0671096 -0.00208172 0.0585319)
(-0.0983422 -0.00175722 0.04791)
(-0.122669 -0.00139404 0.0260191)
(-0.136306 -0.00106953 -0.00685993)
(-0.133677 -0.000841572 -0.0482121)
(-0.108532 -0.000782976 -0.0871908)
(-0.059955 -0.000773703 -0.097484)
(-0.0137809 -0.00034801 -0.0481886)
(-0.00723375 0.00150016 0.0281391)
(-0.032235 0.0021674 0.0547055)
(-0.0671096 0.00208172 0.0585319)
(-0.0983422 0.00175722 0.04791)
(-0.122669 0.00139404 0.0260191)
(-0.136306 0.00106953 -0.00685993)
(-0.133677 0.000841574 -0.0482121)
(-0.108532 0.000782978 -0.0871908)
(-0.059955 0.000773707 -0.097484)
(-0.0137809 0.000348013 -0.0481886)
(-0.00699855 0.00424604 0.0283988)
(-0.0309724 0.00602215 0.0547648)
(-0.0643479 0.00578172 0.0586319)
(-0.0943558 0.00492485 0.0484596)
(-0.11789 0.0039794 0.0274274)
(-0.131311 0.00314485 -0.00422984)
(-0.129193 0.00262349 -0.0441696)
(-0.105306 0.00248179 -0.0821196)
(-0.058488 0.00234925 -0.0928482)
(-0.0136098 0.000917238 -0.0463471)
(-0.00625109 0.00599168 0.0283217)
(-0.0274665 0.00816169 0.0536218)
(-0.0570171 0.00782162 0.0575596)
(-0.0838833 0.00677658 0.0487226)
(-0.105358 0.00569267 0.0301791)
(-0.118086 0.00483252 0.00202069)
(-0.11708 0.00436918 -0.0340239)
(-0.0963587 0.00426249 -0.0690867)
(-0.0541565 0.00378008 -0.0807753)
(-0.0129249 0.00107012 -0.0414631)
(-0.00455332 0.00541203 0.0259386)
(-0.0201618 0.00687413 0.0473358)
(-0.0421652 0.00654811 0.0509937)
(-0.0626087 0.0057998 0.0448633)
(-0.079559 0.00513501 0.0314917)
(-0.0904158 0.00479508 0.0106742)
(-0.090998 0.00479033 -0.0169238)
(-0.0760612 0.00493293 -0.0451668)
(-0.0433942 0.00407453 -0.0574487)
(-0.0106815 0.000383893 -0.0315618)
(-0.00165761 0.00217626 0.0158186)
(-0.00798784 0.00258923 0.0263988)
(-0.0173489 0.00244683 0.0283321)
(-0.0263609 0.00219926 0.0262274)
(-0.0343983 0.00201917 0.0212027)
(-0.0402701 0.00201631 0.0127949)
(-0.0416938 0.00218799 0.000639405)
(-0.0356435 0.00238256 -0.0132459)
(-0.0204058 0.00190012 -0.0219318)
(-0.00503259 -0.000106412 -0.0144147)
(-0.00243248 -0.00284806 0.0254705)
(-0.0102263 -0.00331575 0.0407585)
(-0.0208607 -0.00291106 0.0429461)
(-0.0311514 -0.0022125 0.0397831)
(-0.0413198 -0.00145531 0.0329289)
(-0.0507108 -0.000849476 0.021156)
(-0.0565475 -0.000645216 0.00275488)
(-0.0534285 -0.00105109 -0.0207425)
(-0.0359829 -0.00136558 -0.0389747)
(-0.0110903 -0.00010482 -0.0303561)
(-0.00625159 -0.00696029 0.0414804)
(-0.0255515 -0.00860137 0.0725462)
(-0.0513987 -0.00754804 0.0769711)
(-0.0754615 -0.00549238 0.0681385)
(-0.0969994 -0.00308306 0.049696)
(-0.113962 -0.000831268 0.0201918)
(-0.121062 0.000557296 -0.0217064)
(-0.109447 4.52751e-05 -0.0695997)
(-0.0718691 -0.00151056 -0.0986018)
(-0.0213992 -0.000512362 -0.0640848)
(-0.0084068 -0.00755996 0.0456351)
(-0.0346106 -0.00997638 0.0824538)
(-0.0696 -0.00872002 0.0873407)
(-0.101374 -0.00598877 0.0749519)
(-0.12839 -0.00264291 0.0496398)
(-0.147665 0.000665028 0.010099)
(-0.153036 0.00294673 -0.0440852)
(-0.134982 0.00257486 -0.103222)
(-0.0870172 -7.25516e-07 -0.134427)
(-0.025304 -0.000764929 -0.0819919)
(-0.00932344 -0.00528111 0.0462373)
(-0.0388576 -0.00724075 0.0847326)
(-0.0784015 -0.00630376 0.0896392)
(-0.11385 -0.00415928 0.0756355)
(-0.143218 -0.00149623 0.0472333)
(-0.163019 0.00116065 0.00321819)
(-0.166855 0.00295805 -0.0562103)
(-0.145316 0.00266784 -0.119928)
(-0.0928248 0.000543744 -0.151436)
(-0.0266944 -0.000540828 -0.0902059)
(-0.00959631 -0.00185071 0.0461236)
(-0.0403322 -0.00258279 0.0850031)
(-0.0816105 -0.00224306 0.0899339)
(-0.118432 -0.0014485 0.0754523)
(-0.148631 -0.000456262 0.0460757)
(-0.168584 0.000537174 0.00059592)
(-0.171782 0.00118031 -0.0606389)
(-0.148918 0.00106246 -0.125979)
(-0.0948534 0.000270369 -0.157609)
(-0.0271753 -0.000184179 -0.0931795)
(-0.00959631 0.00185072 0.0461236)
(-0.0403322 0.00258279 0.0850031)
(-0.0816105 0.00224305 0.0899339)
(-0.118432 0.00144849 0.0754523)
(-0.148631 0.000456255 0.0460757)
(-0.168584 -0.000537179 0.000595921)
(-0.171782 -0.00118031 -0.0606389)
(-0.148918 -0.00106246 -0.125979)
(-0.0948534 -0.000270364 -0.157609)
(-0.0271753 0.000184183 -0.0931795)
(-0.00932344 0.00528112 0.0462373)
(-0.0388575 0.00724075 0.0847326)
(-0.0784015 0.00630375 0.0896392)
(-0.11385 0.00415927 0.0756355)
(-0.143218 0.00149622 0.0472333)
(-0.163019 -0.00116065 0.00321819)
(-0.166855 -0.00295805 -0.0562103)
(-0.145316 -0.00266784 -0.119928)
(-0.0928248 -0.000543739 -0.151436)
(-0.0266944 0.000540832 -0.0902059)
(-0.0084068 0.00755997 0.0456351)
(-0.0346106 0.00997637 0.0824538)
(-0.0696 0.00872002 0.0873407)
(-0.101374 0.00598876 0.0749519)
(-0.12839 0.00264291 0.0496398)
(-0.147665 -0.000665028 0.010099)
(-0.153036 -0.00294673 -0.0440852)
(-0.134982 -0.00257485 -0.103222)
(-0.0870172 7.2922e-07 -0.134427)
(-0.025304 0.000764931 -0.0819919)
(-0.00625159 0.0069603 0.0414804)
(-0.0255515 0.00860136 0.0725462)
(-0.0513986 0.00754804 0.0769711)
(-0.0754615 0.00549238 0.0681385)
(-0.0969994 0.00308306 0.049696)
(-0.113962 0.000831269 0.0201918)
(-0.121062 -0.000557293 -0.0217064)
(-0.109447 -4.52717e-05 -0.0695997)
(-0.0718691 0.00151057 -0.0986018)
(-0.0213992 0.000512364 -0.0640848)
(-0.00243248 0.00284806 0.0254704)
(-0.0102263 0.00331575 0.0407585)
(-0.0208607 0.00291106 0.0429461)
(-0.0311514 0.0022125 0.0397831)
(-0.0413198 0.00145531 0.0329289)
(-0.0507108 0.000849476 0.021156)
(-0.0565475 0.000645217 0.00275488)
(-0.0534285 0.00105109 -0.0207425)
(-0.0359829 0.00136558 -0.0389747)
(-0.0110903 0.000104822 -0.0303561)
(-0.00405722 -0.0036063 0.0383043)
(-0.0137001 -0.00394367 0.0575998)
(-0.0244759 -0.00289814 0.0587299)
(-0.0345323 -0.00119731 0.0537325)
(-0.0457255 0.000881905 0.0448417)
(-0.0588316 0.00302677 0.0296991)
(-0.0712446 0.00443592 0.00435247)
(-0.0749685 0.00381619 -0.031688)
(-0.0592886 0.0013861 -0.0652998)
(-0.0216409 -0.000452474 -0.0600006)
(-0.00905216 -0.0086051 0.0614849)
(-0.0322541 -0.0100015 0.101955)
(-0.0598778 -0.00732413 0.105746)
(-0.0844735 -0.00260495 0.093631)
(-0.107595 0.00335389 0.0704341)
(-0.129131 0.00958589 0.0327594)
(-0.144168 0.0138399 -0.0242961)
(-0.140876 0.0125097 -0.0970511)
(-0.106397 0.00534988 -0.154257)
(-0.0371048 -0.00110805 -0.120768)
(-0.0115744 -0.0091247 0.0676277)
(-0.04259 -0.0113667 0.116006)
(-0.0802897 -0.00825197 0.120801)
(-0.112837 -0.00238862 0.104863)
(-0.140932 0.00507017 0.0739086)
(-0.163535 0.0127051 0.0244896)
(-0.175271 0.0176434 -0.0477764)
(-0.16469 0.0157576 -0.136245)
(-0.121572 0.006959 -0.201037)
(-0.0417975 -0.000880154 -0.149636)
(-0.0125507 -0.00627214 0.0688)
(-0.0471559 -0.00813591 0.119604)
(-0.0896792 -0.00587202 0.124777)
(-0.125776 -0.00147548 0.10738)
(-0.155619 0.00410319 0.0733559)
(-0.177713 0.00969822 0.019265)
(-0.186856 0.0130976 -0.0590091)
(-0.172566 0.0114515 -0.153612)
(-0.126603 0.00503454 -0.221153)
(-0.0435562 -0.000439153 -0.161922)
(-0.0128016 -0.00217893 0.0688492)
(-0.0486207 -0.00288068 0.120273)
(-0.0928868 -0.00207302 0.125656)
(-0.130225 -0.000484394 0.107947)
(-0.160609 0.00152361 0.0730892)
(-0.182418 0.00351286 0.0175876)
(-0.190597 0.00467006 -0.0626538)
(-0.17513 0.00403066 -0.159483)
(-0.128487 0.00176707 -0.228169)
(-0.0443068 -0.000113408 -0.166291)
(-0.0128016 0.00217894 0.0688492)
(-0.0486207 0.00288068 0.120273)
(-0.0928868 0.00207302 0.125656)
(-0.130225 0.000484384 0.107947)
(-0.160609 -0.00152362 0.0730892)
(-0.182418 -0.00351287 0.0175876)
(-0.190597 -0.00467006 -0.0626538)
(-0.17513 -0.00403066 -0.159483)
(-0.128487 -0.00176706 -0.228169)
(-0.0443068 0.000113413 -0.166291)
(-0.0125507 0.00627214 0.0688)
(-0.0471559 0.0081359 0.119604)
(-0.0896792 0.00587201 0.124777)
(-0.125776 0.00147547 0.10738)
(-0.155619 -0.0041032 0.0733559)
(-0.177713 -0.00969822 0.0192651)
(-0.186856 -0.0130976 -0.0590091)
(-0.172566 -0.0114515 -0.153612)
(-0.126603 -0.00503454 -0.221153)
(-0.0435562 0.000439158 -0.161922)
(-0.0115744 0.0091247 0.0676277)
(-0.04259 0.0113667 0.116006)
(-0.0802897 0.00825197 0.120801)
(-0.112837 0.00238861 0.104863)
(-0.140932 -0.00507017 0.0739086)
(-0.163535 -0.0127051 0.0244896)
(-0.175271 -0.0176434 -0.0477764)
(-0.16469 -0.0157575 -0.136245)
(-0.121572 -0.006959 -0.201037)
(-0.0417975 0.000880158 -0.149636)
(-0.00905216 0.00860511 0.0614849)
(-0.0322541 0.0100015 0.101955)
(-0.0598778 0.00732413 0.105746)
(-0.0844735 0.00260495 0.093631)
(-0.107595 -0.00335389 0.0704341)
(-0.129131 -0.00958589 0.0327594)
(-0.144168 -0.0138399 -0.024296)
(-0.140876 -0.0125097 -0.0970511)
(-0.106397 -0.00534987 -0.154257)
(-0.0371048 0.00110806 -0.120768)
(-0.00405722 0.0036063 0.0383043)
(-0.0137001 0.00394367 0.0575998)
(-0.0244759 0.00289814 0.0587299)
(-0.0345323 0.00119731 0.0537325)
(-0.0457255 -0.000881905 0.0448417)
(-0.0588316 -0.00302677 0.0296991)
(-0.0712446 -0.00443592 0.00435247)
(-0.0749685 -0.00381619 -0.031688)
(-0.0592886 -0.0013861 -0.0652998)
(-0.0216409 0.000452474 -0.0600006)
(-0.0079473 -0.00461604 0.0567257)
(-0.0201871 -0.00458816 0.0758279)
(-0.0277323 -0.00237825 0.0725716)
(-0.0335971 0.000965654 0.0636583)
(-0.0421694 0.00508634 0.0519216)
(-0.0566517 0.00960493 0.0337346)
(-0.0761892 0.0130609 0.00251168)
(-0.091011 0.012446 -0.0472667)
(-0.0853208 0.00660639 -0.101892)
(-0.0351862 -0.00109918 -0.111259)
(-0.0146926 -0.0105918 0.0883692)
(-0.0418769 -0.0112205 0.133646)
(-0.0652979 -0.0058181 0.13263)
(-0.0823685 0.00285521 0.115276)
(-0.0984438 0.0136971 0.0876732)
(-0.117055 0.0252348 0.0445573)
(-0.136517 0.0333359 -0.0232506)
(-0.144691 0.0307662 -0.120336)
(-0.12754 0.0150561 -0.216095)
(-0.0494427 -0.0033623 -0.20906)
(-0.017422 -0.0108313 0.0962643)
(-0.052439 -0.0124555 0.151727)
(-0.0854765 -0.00653625 0.152588)
(-0.108679 0.00350515 0.132013)
(-0.1266 0.0159982 0.0971575)
(-0.142258 0.0286121 0.0426261)
(-0.154657 0.036285 -0.0405737)
(-0.153871 0.0317784 -0.155936)
(-0.132607 0.0142348 -0.266301)
(-0.0510055 -0.00299213 -0.248788)
(-0.0182859 -0.00728253 0.0977388)
(-0.0565661 -0.00878939 0.156382)
(-0.0939064 -0.00465916 0.15824)
(-0.119555 0.00254837 0.136893)
(-0.137528 0.0114643 0.0997075)
(-0.150656 0.0201636 0.0411973)
(-0.158834 0.0248958 -0.0475447)
(-0.154154 0.0210082 -0.169863)
(-0.133146 0.00894864 -0.28603)
(-0.0518629 -0.0016913 -0.264678)
(-0.018433 -0.00250177 0.0978258)
(-0.0576749 -0.00309076 0.157295)
(-0.0964195 -0.00164822 0.15964)
(-0.122806 0.000898504 0.138332)
(-0.140659 0.00403169 0.100699)
(-0.152817 0.00703466 0.0411152)
(-0.159651 0.00856562 -0.0494528)
(-0.154097 0.00709232 -0.174446)
(-0.133849 0.00296199 -0.29297)
(-0.0525722 -0.000497541 -0.270421)
(-0.018433 0.00250177 0.0978258)
(-0.0576749 0.00309076 0.157295)
(-0.0964195 0.00164821 0.15964)
(-0.122806 -0.000898516 0.138332)
(-0.140659 -0.0040317 0.100699)
(-0.152817 -0.00703466 0.0411152)
(-0.159651 -0.00856562 -0.0494528)
(-0.154097 -0.00709232 -0.174446)
(-0.133849 -0.00296199 -0.29297)
(-0.0525722 0.000497549 -0.270421)
(-0.0182859 0.00728253 0.0977388)
(-0.0565661 0.00878939 0.156382)
(-0.0939064 0.00465915 0.15824)
(-0.119555 -0.00254838 0.136893)
(-0.137528 -0.0114643 0.0997075)
(-0.150656 -0.0201636 0.0411973)
(-0.158834 -0.0248958 -0.0475447)
(-0.154154 -0.0210082 -0.169863)
(-0.133146 -0.00894863 -0.28603)
(-0.0518629 0.0016913 -0.264678)
(-0.017422 0.0108314 0.0962643)
(-0.052439 0.0124555 0.151727)
(-0.0854765 0.00653624 0.152588)
(-0.108679 -0.00350516 0.132013)
(-0.1266 -0.0159982 0.0971575)
(-0.142258 -0.0286121 0.0426261)
(-0.154657 -0.036285 -0.0405737)
(-0.153871 -0.0317784 -0.155936)
(-0.132607 -0.0142348 -0.266301)
(-0.0510055 0.00299214 -0.248788)
(-0.0146926 0.0105918 0.0883691)
(-0.0418769 0.0112205 0.133646)
(-0.0652979 0.0058181 0.13263)
(-0.0823685 -0.00285522 0.115276)
(-0.0984438 -0.0136971 0.0876732)
(-0.117055 -0.0252348 0.0445573)
(-0.136517 -0.0333359 -0.0232506)
(-0.144691 -0.0307662 -0.120336)
(-0.12754 -0.0150561 -0.216095)
(-0.0494427 0.0033623 -0.20906)
(-0.0079473 0.00461604 0.0567257)
(-0.0201871 0.00458816 0.0758279)
(-0.0277324 0.00237825 0.0725716)
(-0.0335971 -0.000965654 0.0636583)
(-0.0421694 -0.00508634 0.0519216)
(-0.0566517 -0.00960493 0.0337346)
(-0.0761892 -0.0130609 0.00251168)
(-0.091011 -0.012446 -0.0472667)
(-0.0853208 -0.00660639 -0.101892)
(-0.0351862 0.00109918 -0.111259)
(-0.0171861 -0.00643135 0.0816558)
(-0.0320089 -0.00608756 0.0911081)
(-0.0258373 -0.00256716 0.0790014)
(-0.018992 0.00258636 0.0633605)
(-0.0175377 0.00864269 0.0480706)
(-0.026779 0.015423 0.0281869)
(-0.0499499 0.0212566 -0.00583906)
(-0.0774354 0.0210169 -0.0664366)
(-0.0958992 0.010856 -0.144681)
(-0.0414523 -0.00501831 -0.189964)
(-0.0275961 -0.0139074 0.120503)
(-0.0582108 -0.0139802 0.160303)
(-0.0603107 -0.00590351 0.1489)
(-0.053216 0.00630464 0.123109)
(-0.0467493 0.0208803 0.0919887)
(-0.0476553 0.0364885 0.049374)
(-0.0612908 0.0485609 -0.0179644)
(-0.0784343 0.0458084 -0.127957)
(-0.0999515 0.0209436 -0.26321)
(-0.0370052 -0.0117737 -0.317761)
(-0.0307641 -0.013492 0.128887)
(-0.0686273 -0.0149535 0.181574)
(-0.0777156 -0.00673134 0.173259)
(-0.0721947 0.0062603 0.145267)
(-0.0621377 0.0218381 0.10862)
(-0.0540442 0.0375355 0.0570936)
(-0.0554352 0.0478335 -0.0222951)
(-0.060662 0.0420793 -0.149379)
(-0.0839759 0.0164931 -0.304787)
(-0.0297337 -0.00978896 -0.359061)
(-0.0314769 -0.00878119 0.130162)
(-0.0718257 -0.0103033 0.186807)
(-0.0838758 -0.00484208 0.180297)
(-0.0789851 0.00403207 0.152468)
(-0.0670528 0.0146823 0.114613)
(-0.0544223 0.0250627 0.0603609)
(-0.0501731 0.0311259 -0.0231773)
(-0.0511569 0.0262094 -0.156815)
(-0.0779685 0.00959856 -0.320048)
(-0.0284871 -0.00548015 -0.374532)
(-0.0314873 -0.00296667 0.130132)
(-0.0723463 -0.0035816 0.187719)
(-0.0851803 -0.00172173 0.181987)
(-0.0803785 0.0013402 0.154591)
(-0.0677518 0.0050056 0.116721)
(-0.0536316 0.00852343 0.0618033)
(-0.0478406 0.0104558 -0.0232009)
(-0.0482472 0.00862913 -0.159501)
(-0.0772101 0.00309767 -0.325739)
(-0.0289169 -0.00164568 -0.380263)
(-0.0314873 0.00296667 0.130132)
(-0.0723463 0.00358159 0.187719)
(-0.0851803 0.00172172 0.181987)
(-0.0803785 -0.00134022 0.154591)
(-0.0677518 -0.00500562 0.116721)
(-0.0536316 -0.00852344 0.0618033)
(-0.0478406 -0.0104558 -0.0232009)
(-0.0482472 -0.00862912 -0.159501)
(-0.0772101 -0.00309766 -0.325739)
(-0.0289169 0.00164569 -0.380263)
(-0.0314769 0.00878119 0.130162)
(-0.0718257 0.0103033 0.186807)
(-0.0838758 0.00484206 0.180297)
(-0.0789851 -0.00403208 0.152468)
(-0.0670528 -0.0146823 0.114613)
(-0.0544223 -0.0250627 0.0603609)
(-0.0501731 -0.0311259 -0.0231773)
(-0.0511569 -0.0262094 -0.156815)
(-0.0779685 -0.00959855 -0.320048)
(-0.0284871 0.00548016 -0.374532)
(-0.0307641 0.013492 0.128887)
(-0.0686273 0.0149534 0.181574)
(-0.0777156 0.00673133 0.173259)
(-0.0721947 -0.00626031 0.145267)
(-0.0621377 -0.0218381 0.10862)
(-0.0540442 -0.0375355 0.0570937)
(-0.0554352 -0.0478335 -0.0222951)
(-0.060662 -0.0420793 -0.149379)
(-0.0839759 -0.0164931 -0.304787)
(-0.0297337 0.00978896 -0.359061)
(-0.0275961 0.0139074 0.120503)
(-0.0582108 0.0139802 0.160303)
(-0.0603107 0.00590351 0.1489)
(-0.053216 -0.00630464 0.123109)
(-0.0467493 -0.0208803 0.0919887)
(-0.0476553 -0.0364885 0.049374)
(-0.0612908 -0.0485609 -0.0179644)
(-0.0784343 -0.0458084 -0.127957)
(-0.0999515 -0.0209436 -0.26321)
(-0.0370052 0.0117737 -0.317761)
(-0.0171861 0.00643135 0.0816558)
(-0.0320089 0.00608756 0.0911081)
(-0.0258373 0.00256716 0.0790014)
(-0.018992 -0.00258637 0.0633605)
(-0.0175377 -0.00864269 0.0480706)
(-0.026779 -0.015423 0.0281869)
(-0.0499499 -0.0212566 -0.00583906)
(-0.0774354 -0.0210169 -0.0664366)
(-0.0958992 -0.010856 -0.144681)
(-0.0414523 0.00501831 -0.189964)
(-0.0241461 -0.0109371 0.151408)
(-0.0223456 -0.0106771 0.0989081)
(0.0225805 -0.00623981 0.0633953)
(0.0539844 -5.02273e-05 0.0423863)
(0.0738989 0.0065823 0.0267791)
(0.0774478 0.0139435 0.00995046)
(0.0577007 0.0212654 -0.0178182)
(0.0227825 0.0212971 -0.0747659)
(-0.0429612 0.0068307 -0.169804)
(-0.00704056 -0.0164274 -0.256798)
(-0.0434407 -0.0217282 0.210648)
(-0.0463192 -0.0228968 0.16789)
(0.0132589 -0.0141511 0.124453)
(0.065019 -0.00137357 0.0925944)
(0.107391 0.013135 0.0647442)
(0.135518 0.0287974 0.0332745)
(0.135779 0.0436848 -0.014244)
(0.119816 0.0436975 -0.103956)
(0.0332818 0.0136336 -0.252451)
(0.0413785 -0.0289765 -0.36645)
(-0.0487335 -0.0187208 0.220303)
(-0.0560426 -0.0223788 0.186254)
(0.00249633 -0.0149136 0.145124)
(0.0585035 -0.00299352 0.112247)
(0.109154 0.0113202 0.0812476)
(0.150302 0.0262675 0.0445196)
(0.163982 0.0388755 -0.00975971)
(0.162096 0.0367918 -0.108488)
(0.0715884 0.00942455 -0.272792)
(0.0600057 -0.0199561 -0.392911)
(-0.0494215 -0.0114333 0.220895)
(-0.0579446 -0.0146269 0.189457)
(-0.000483986 -0.0101506 0.150074)
(0.0563388 -0.00256628 0.117976)
(0.10944 0.00669991 0.08673)
(0.155148 0.0163027 0.0484769)
(0.173225 0.0238427 -0.0083942)
(0.175297 0.0219251 -0.110513)
(0.0809071 0.00587399 -0.280199)
(0.0628955 -0.0101156 -0.402099)
(-0.0492148 -0.00374933 0.220454)
(-0.0576931 -0.00495845 0.18949)
(-0.0003839 -0.00350529 0.150793)
(0.056712 -0.000976753 0.119244)
(0.110456 0.0021351 0.0882318)
(0.157345 0.0053527 0.0496579)
(0.176291 0.00780081 -0.00818703)
(0.178572 0.00711757 -0.111793)
(0.081784 0.00201534 -0.283358)