/*--------------------------------*- C++ -*----------------------------------*\
  =========                 |
  \\      /  F ield         | OpenFOAM: The Open Source CFD Toolbox
   \\    /   O peration     | Website:  https://openfoam.org
    \\  /    A nd           | Version:  9
     \\/     M anipulation  |
\*---------------------------------------------------------------------------*/
FoamFile
{
    format      ascii;
    class       volVectorField;
    location    "0.88";
    object      U;
}
// * * * * * * * * * * * * * * * * * * * * * * * * * * * * * * * * * * * * * //

dimensions      [0 1 -1 0 0 0 0];

internalField   nonuniform List<vector> 
1000
(
(3.39388e-05 -0.000516574 0.000340002)
(-0.00139263 -0.000486846 0.00107863)
(-0.00456849 -0.000444126 0.00144231)
(-0.00797035 -0.000554207 0.00160378)
(-0.010894 -0.000863964 0.00157443)
(-0.0123689 -0.00133371 0.001262)
(-0.0114499 -0.00179836 0.000655136)
(-0.00788329 -0.00196545 -1.50743e-05)
(-0.0026248 -0.00156361 -0.000213599)
(0.000113803 -0.000468174 0.00038389)
(-0.00014556 -0.00183832 0.000596805)
(-0.00343421 -0.00227987 0.00231727)
(-0.0101672 -0.00236581 0.00308312)
(-0.0170962 -0.00270054 0.00318591)
(-0.0227147 -0.00346571 0.00269592)
(-0.0252228 -0.00455777 0.00151654)
(-0.0229815 -0.00555097 -0.000208732)
(-0.0156985 -0.00573856 -0.00174364)
(-0.00545267 -0.00453892 -0.00176273)
(-2.87452e-06 -0.00167836 0.000241419)
(-0.000348339 -0.00276297 0.000282533)
(-0.00500856 -0.00389129 0.0023658)
(-0.0141337 -0.004218 0.00327223)
(-0.0232795 -0.00466646 0.0032278)
(-0.0304073 -0.00552417 0.0022994)
(-0.0332166 -0.00667096 0.000418291)
(-0.029703 -0.00756059 -0.00210319)
(-0.019719 -0.00748489 -0.00402425)
(-0.00628597 -0.00590044 -0.00347638)
(0.000357937 -0.00250743 -4.10055e-05)
(-0.000498219 -0.00234771 -0.000140057)
(-0.00609808 -0.00345032 0.00200166)
(-0.0168097 -0.0037863 0.00292681)
(-0.0273627 -0.00414615 0.00274913)
(-0.0353583 -0.00477469 0.00150705)
(-0.0381278 -0.00557685 -0.000838153)
(-0.0335115 -0.00611365 -0.00383153)
(-0.0216443 -0.00592271 -0.00586055)
(-0.00622841 -0.00466558 -0.00473659)
(0.000838467 -0.00209985 -0.000236978)
(-0.000580146 -0.000907939 -0.000404398)
(-0.00666373 -0.00135603 0.00172066)
(-0.0181734 -0.00149438 0.00263629)
(-0.0294111 -0.00162838 0.00238299)
(-0.0377896 -0.00185111 0.000977665)
(-0.04047 -0.00212602 -0.00160124)
(-0.0352321 -0.00230215 -0.00479053)
(-0.0223895 -0.00221013 -0.00681951)
(-0.00602956 -0.001742 -0.0053593)
(0.00114231 -0.000803764 -0.000325578)
(-0.000580144 0.000907894 -0.000404396)
(-0.00666373 0.00135599 0.00172066)
(-0.0181734 0.00149435 0.00263629)
(-0.0294111 0.00162836 0.00238299)
(-0.0377896 0.00185109 0.000977666)
(-0.04047 0.00212601 -0.00160124)
(-0.0352321 0.00230214 -0.00479053)
(-0.0223895 0.00221012 -0.00681951)
(-0.00602956 0.00174199 -0.0053593)
(0.00114231 0.000803755 -0.000325578)
(-0.000498212 0.00234766 -0.000140051)
(-0.00609807 0.00345028 0.00200166)
(-0.0168097 0.00378627 0.00292682)
(-0.0273626 0.00414612 0.00274913)
(-0.0353583 0.00477467 0.00150705)
(-0.0381278 0.00557684 -0.000838151)
(-0.0335115 0.00611364 -0.00383153)
(-0.0216443 0.0059227 -0.00586055)
(-0.00622841 0.00466558 -0.00473659)
(0.000838468 0.00209984 -0.000236977)
(-0.000348324 0.0027629 0.000282547)
(-0.00500854 0.00389123 0.00236581)
(-0.0141337 0.00421797 0.00327224)
(-0.0232795 0.00466644 0.0032278)
(-0.0304073 0.00552415 0.0022994)
(-0.0332166 0.00667095 0.000418293)
(-0.029703 0.00756058 -0.00210319)
(-0.019719 0.00748489 -0.00402425)
(-0.00628597 0.00590043 -0.00347638)
(0.000357939 0.00250742 -4.10053e-05)
(-0.000145527 0.00183814 0.000596839)
(-0.00343415 0.00227979 0.00231729)
(-0.0101672 0.00236578 0.00308313)
(-0.0170961 0.00270052 0.00318592)
(-0.0227147 0.00346569 0.00269592)
(-0.0252228 0.00455776 0.00151655)
(-0.0229815 0.00555096 -0.000208731)
(-0.0156984 0.00573856 -0.00174363)
(-0.00545266 0.00453892 -0.00176273)
(-2.87301e-06 0.00167836 0.000241418)
(3.40558e-05 0.000516441 0.000340124)
(-0.00139246 0.000486798 0.00107868)
(-0.00456841 0.000444111 0.00144232)
(-0.00797031 0.0005542 0.00160378)
(-0.0108939 0.000863961 0.00157444)
(-0.0123689 0.00133371 0.001262)
(-0.0114499 0.00179836 0.000655136)
(-0.00788328 0.00196545 -1.50742e-05)
(-0.0026248 0.00156361 -0.000213599)
(0.000113804 0.000468171 0.000383891)
(-0.000621784 -0.00147425 0.00347605)
(-0.00409404 -0.00190466 0.00698272)
(-0.0101468 -0.00194247 0.0083642)
(-0.0163972 -0.00196871 0.00857111)
(-0.0216536 -0.00214218 0.00770138)
(-0.0243308 -0.00248526 0.00552211)
(-0.0228647 -0.00284065 0.00215501)
(-0.0166079 -0.00285649 -0.00133079)
(-0.00681298 -0.00209862 -0.00275469)
(-0.000653002 -0.000321834 -0.000495611)
(-0.00196001 -0.00437739 0.0058155)
(-0.0108671 -0.00617652 0.0132787)
(-0.0253269 -0.00647158 0.0159511)
(-0.0394816 -0.00656348 0.0153775)
(-0.0504488 -0.00697382 0.0119221)
(-0.0551024 -0.00773323 0.0055089)
(-0.050747 -0.00842947 -0.00290528)
(-0.0366212 -0.00818101 -0.0101799)
(-0.0157996 -0.00610715 -0.0111044)
(-0.00214715 -0.00165708 -0.0028938)
(-0.00305289 -0.00585233 0.0056201)
(-0.0161076 -0.00882115 0.0144632)
(-0.0365744 -0.00939868 0.0173809)
(-0.0558406 -0.00949814 0.0157422)
(-0.0698982 -0.00987509 0.00995933)
(-0.0748692 -0.0105556 0.000239977)
(-0.0676816 -0.0110184 -0.0115229)
(-0.0479098 -0.0103957 -0.0204412)
(-0.0201546 -0.00789738 -0.0192573)
(-0.00252352 -0.00286849 -0.00516659)
(-0.00378588 -0.00474465 0.00473842)
(-0.0196605 -0.00736157 0.0137809)
(-0.0441097 -0.00788708 0.0165209)
(-0.0665043 -0.00793447 0.0139638)
(-0.0821324 -0.00813621 0.00650258)
(-0.0867259 -0.00851604 -0.00535631)
(-0.077201 -0.00864615 -0.0189948)
(-0.053688 -0.00803294 -0.028347)
(-0.0218415 -0.00617172 -0.0250386)
(-0.00235853 -0.00249825 -0.0066775)
(-0.00415154 -0.00180007 0.00411262)
(-0.0214545 -0.00282449 0.0130702)
(-0.0478933 -0.00303091 0.0156299)
(-0.0717649 -0.00303889 0.0125576)
(-0.0880186 -0.00309051 0.00423561)
(-0.0922301 -0.00319772 -0.00863183)
(-0.0814059 -0.00320471 -0.0230333)
(-0.0560449 -0.00295747 -0.0323814)
(-0.0223392 -0.00228722 -0.0278571)
(-0.00216692 -0.000969461 -0.00738049)
(-0.00415154 0.00180003 0.00411263)
(-0.0214545 0.00282445 0.0130702)
(-0.0478933 0.00303088 0.0156299)
(-0.0717649 0.00303886 0.0125576)
(-0.0880186 0.00309049 0.00423561)
(-0.0922301 0.00319771 -0.00863183)
(-0.0814059 0.0032047 -0.0230333)
(-0.0560449 0.00295746 -0.0323814)
(-0.0223392 0.00228721 -0.0278571)
(-0.00216692 0.000969453 -0.00738049)
(-0.00378588 0.00474461 0.00473843)
(-0.0196605 0.00736153 0.0137809)
(-0.0441096 0.00788705 0.0165209)
(-0.0665043 0.00793444 0.0139638)
(-0.0821324 0.00813619 0.00650258)
(-0.0867259 0.00851602 -0.0053563)
(-0.077201 0.00864614 -0.0189948)
(-0.053688 0.00803293 -0.028347)
(-0.0218415 0.00617171 -0.0250386)
(-0.00235853 0.00249824 -0.0066775)
(-0.00305288 0.00585227 0.00562013)
(-0.0161075 0.0088211 0.0144632)
(-0.0365744 0.00939865 0.0173809)
(-0.0558406 0.00949811 0.0157422)
(-0.0698982 0.00987507 0.00995934)
(-0.0748692 0.0105556 0.000239981)
(-0.0676816 0.0110184 -0.0115229)
(-0.0479098 0.0103957 -0.0204412)
(-0.0201546 0.00789737 -0.0192573)
(-0.00252352 0.00286848 -0.00516659)
(-0.00195999 0.00437731 0.00581556)
(-0.0108671 0.00617647 0.0132787)
(-0.0253268 0.00647155 0.0159511)
(-0.0394815 0.00656346 0.0153775)
(-0.0504488 0.00697381 0.0119221)
(-0.0551024 0.00773322 0.00550891)
(-0.050747 0.00842946 -0.00290527)
(-0.0366212 0.008181 -0.0101799)
(-0.0157996 0.00610714 -0.0111044)
(-0.00214715 0.00165707 -0.0028938)
(-0.000621745 0.00147421 0.00347622)
(-0.00409397 0.00190463 0.0069828)
(-0.0101467 0.00194246 0.00836423)
(-0.0163972 0.0019687 0.00857113)
(-0.0216536 0.00214218 0.00770138)
(-0.0243308 0.00248526 0.00552211)
(-0.0228647 0.00284065 0.00215501)
(-0.0166079 0.00285649 -0.00133079)
(-0.00681298 0.00209862 -0.00275468)
(-0.000653001 0.000321832 -0.000495609)
(-0.00109551 -0.00229384 0.0101762)
(-0.00596796 -0.00304185 0.0182461)
(-0.0138694 -0.00301907 0.020891)
(-0.0219986 -0.00278773 0.020652)
(-0.0292046 -0.00264073 0.0178795)
(-0.0336886 -0.00272491 0.0121912)
(-0.0332371 -0.0029635 0.00384889)
(-0.0260911 -0.00300797 -0.00496515)
(-0.0126007 -0.00222856 -0.0094007)
(-0.00218305 -5.24442e-05 -0.00464309)
(-0.00347294 -0.0064986 0.0169956)
(-0.0167754 -0.00916839 0.033498)
(-0.0368655 -0.00918502 0.0382922)
(-0.056161 -0.00840621 0.0355807)
(-0.0714875 -0.00775312 0.0264049)
(-0.0792345 -0.00758706 0.0108676)
(-0.0756687 -0.00773065 -0.00902323)
(-0.0582717 -0.00750284 -0.0269376)
(-0.0287039 -0.00568144 -0.0313303)
(-0.00546799 -0.0009529 -0.0130999)
(-0.00543475 -0.00833605 0.0181146)
(-0.0253933 -0.0123881 0.0374851)
(-0.0544707 -0.012462 0.0422995)
(-0.0810136 -0.0112327 0.0367235)
(-0.100494 -0.00999337 0.022103)
(-0.108562 -0.00919414 -0.000689923)
(-0.10129 -0.00872095 -0.0277003)
(-0.0764316 -0.00814691 -0.0495144)
(-0.0369677 -0.00640762 -0.0503257)
(-0.00676322 -0.00196895 -0.019655)
(-0.00676852 -0.00659731 0.0174559)
(-0.0312732 -0.0100425 0.0372667)
(-0.0662635 -0.010086 0.0413484)
(-0.0970529 -0.00896153 0.0334217)
(-0.118325 -0.00773937 0.0150519)
(-0.125559 -0.00678706 -0.0120992)
(-0.115148 -0.00611452 -0.0427654)
(-0.0855131 -0.0056012 -0.0656354)
(-0.040554 -0.0045566 -0.0628301)
(-0.00703759 -0.00172847 -0.0236993)
(-0.00743497 -0.0024739 0.0167925)
(-0.0342285 -0.00380035 0.0364505)
(-0.0721279 -0.00380898 0.0399659)
(-0.104828 -0.00335435 0.0307573)
(-0.126657 -0.00284577 0.010544)
(-0.133144 -0.00242585 -0.018521)
(-0.12101 -0.00212779 -0.0505361)
(-0.0891182 -0.00193542 -0.0734525)
(-0.0418105 -0.00160927 -0.0686401)
(-0.00703097 -0.000669278 -0.0255093)
(-0.00743497 0.00247386 0.0167925)
(-0.0342285 0.00380032 0.0364505)
(-0.0721279 0.00380895 0.0399659)
(-0.104828 0.00335432 0.0307573)
(-0.126657 0.00284575 0.010544)
(-0.133144 0.00242584 -0.018521)
(-0.12101 0.00212778 -0.0505361)
(-0.0891182 0.00193541 -0.0734525)
(-0.0418105 0.00160926 -0.0686401)
(-0.00703097 0.000669269 -0.0255093)
(-0.00676851 0.00659727 0.0174559)
(-0.0312731 0.0100424 0.0372667)
(-0.0662635 0.0100859 0.0413484)
(-0.0970529 0.00896151 0.0334217)
(-0.118325 0.00773935 0.015052)
(-0.125559 0.00678705 -0.0120992)
(-0.115148 0.00611451 -0.0427654)
(-0.0855131 0.0056012 -0.0656354)
(-0.040554 0.0045566 -0.0628301)
(-0.00703759 0.00172846 -0.0236993)
(-0.00543474 0.00833602 0.0181146)
(-0.0253933 0.012388 0.0374851)
(-0.0544707 0.012462 0.0422995)
(-0.0810136 0.0112327 0.0367235)
(-0.100494 0.00999335 0.022103)
(-0.108562 0.00919413 -0.00068992)
(-0.10129 0.00872094 -0.0277003)
(-0.0764316 0.00814691 -0.0495144)
(-0.0369677 0.00640762 -0.0503257)
(-0.00676322 0.00196894 -0.019655)
(-0.00347293 0.00649857 0.0169957)
(-0.0167754 0.00916836 0.033498)
(-0.0368655 0.009185 0.0382922)
(-0.056161 0.0084062 0.0355807)
(-0.0714875 0.00775311 0.0264049)
(-0.0792344 0.00758706 0.0108676)
(-0.0756686 0.00773064 -0.00902323)
(-0.0582717 0.00750284 -0.0269376)
(-0.0287039 0.00568144 -0.0313303)
(-0.00546799 0.000952896 -0.0130999)
(-0.0010955 0.00229382 0.0101762)
(-0.00596793 0.00304184 0.0182462)
(-0.0138694 0.00301906 0.020891)
(-0.0219985 0.00278772 0.020652)
(-0.0292045 0.00264072 0.0178795)
(-0.0336886 0.00272491 0.0121912)
(-0.0332371 0.0029635 0.00384889)
(-0.0260911 0.00300797 -0.00496515)
(-0.0126006 0.00222856 -0.0094007)
(-0.00218305 5.24428e-05 -0.00464309)
(-0.00145918 -0.0030026 0.0190083)
(-0.0072835 -0.00390342 0.0324093)
(-0.0163765 -0.00361161 0.0360695)
(-0.025959 -0.00287231 0.0349398)
(-0.0353795 -0.00214612 0.0298243)
(-0.0429198 -0.0017637 0.0199845)
(-0.04555 -0.00185669 0.0053221)
(-0.0394626 -0.00223562 -0.0112393)
(-0.0226014 -0.00197762 -0.0213407)
(-0.00548817 0.000132229 -0.0136495)
(-0.00467393 -0.00830628 0.0318037)
(-0.0212869 -0.0113478 0.058964)
(-0.0454868 -0.0104368 0.0654517)
(-0.0688352 -0.00796145 0.059652)
(-0.0887564 -0.00534645 0.0436708)
(-0.101718 -0.003518 0.0174311)
(-0.102684 -0.00289511 -0.017)
(-0.0857808 -0.00346226 -0.0507358)
(-0.0487119 -0.00351282 -0.063782)
(-0.0117833 -0.000164365 -0.0331149)
(-0.00732538 -0.0103981 0.0350534)
(-0.0325869 -0.0148261 0.0669364)
(-0.0680341 -0.0134669 0.0730887)
(-0.10009 -0.00969945 0.0624522)
(-0.124865 -0.00552126 0.0379201)
(-0.138242 -0.00220997 0.000605004)
(-0.135232 -0.000637078 -0.0450324)
(-0.110139 -0.0011908 -0.0860585)
(-0.0615254 -0.00230259 -0.0958123)
(-0.0144701 -0.000662116 -0.0459771)
(-0.00912468 -0.00809188 0.0351785)
(-0.040251 -0.0117609 0.0679351)
(-0.0829309 -0.0105378 0.0727294)
(-0.119711 -0.00722742 0.0583645)
(-0.146026 -0.00350361 0.0284053)
(-0.158031 -0.000462282 -0.0148664)
(-0.151414 0.000965789 -0.0654328)
(-0.121267 0.000416072 -0.108513)
(-0.066954 -0.000943753 -0.1146)
(-0.0154011 -0.000564108 -0.0531067)
(-0.0100167 -0.0030078 0.0347829)
(-0.0440558 -0.00440111 0.067419)
(-0.0901988 -0.00390985 0.0712433)
(-0.128935 -0.0026062 0.0549311)
(-0.155461 -0.00113879 0.0224962)
(-0.166278 5.97263e-05 -0.0230924)
(-0.157694 0.000616659 -0.075211)
(-0.125346 0.00037436 -0.118534)
(-0.0688759 -0.000215164 -0.122651)
(-0.0156812 -0.000212382 -0.0560792)
(-0.0100167 0.00300777 0.0347829)
(-0.0440558 0.00440109 0.067419)
(-0.0901988 0.00390983 0.0712433)
(-0.128935 0.00260618 0.0549311)
(-0.155461 0.00113877 0.0224962)
(-0.166278 -5.97405e-05 -0.0230924)
(-0.157694 -0.000616671 -0.075211)
(-0.125346 -0.000374371 -0.118534)
(-0.0688759 0.000215154 -0.122651)
(-0.0156812 0.000212373 -0.0560792)
(-0.00912467 0.00809185 0.0351785)
(-0.040251 0.0117609 0.0679351)
(-0.0829309 0.0105378 0.0727294)
(-0.119711 0.0072274 0.0583645)
(-0.146026 0.00350359 0.0284053)
(-0.158031 0.00046227 -0.0148664)
(-0.151414 -0.000965799 -0.0654328)
(-0.121267 -0.000416081 -0.108513)
(-0.066954 0.000943745 -0.1146)
(-0.0154011 0.000564101 -0.0531067)
(-0.00732537 0.0103981 0.0350534)
(-0.0325869 0.0148261 0.0669364)
(-0.0680341 0.0134669 0.0730887)
(-0.10009 0.00969943 0.0624522)
(-0.124865 0.00552124 0.0379201)
(-0.138242 0.00220996 0.000605008)
(-0.135232 0.000637071 -0.0450324)
(-0.110139 0.00119079 -0.0860585)
(-0.0615254 0.00230259 -0.0958123)
(-0.0144701 0.000662111 -0.0459771)
(-0.00467393 0.00830626 0.0318038)
(-0.0212869 0.0113478 0.058964)
(-0.0454868 0.0104368 0.0654517)
(-0.0688352 0.00796144 0.059652)
(-0.0887564 0.00534644 0.0436708)
(-0.101718 0.003518 0.0174311)
(-0.102684 0.0028951 -0.017)
(-0.0857808 0.00346226 -0.0507358)
(-0.0487119 0.00351282 -0.063782)
(-0.0117833 0.000164362 -0.0331149)
(-0.00145917 0.0030026 0.0190084)
(-0.00728349 0.00390341 0.0324093)
(-0.0163764 0.00361161 0.0360696)
(-0.025959 0.0028723 0.0349399)
(-0.0353795 0.00214611 0.0298243)
(-0.0429198 0.0017637 0.0199845)
(-0.04555 0.00185669 0.0053221)
(-0.0394626 0.00223562 -0.0112393)
(-0.0226014 0.00197762 -0.0213407)
(-0.00548816 -0.00013223 -0.0136495)
(-0.00198466 -0.00354747 0.0297475)
(-0.00851434 -0.0044005 0.0485495)
(-0.0179514 -0.00356427 0.0524936)
(-0.0282168 -0.00195358 0.0498661)
(-0.0397735 -0.000221251 0.0421041)
(-0.0515365 0.00108796 0.0278532)
(-0.0597324 0.00140911 0.00579712)
(-0.0576797 0.000443595 -0.0213605)
(-0.0391969 -0.000744281 -0.0414738)
(-0.012084 3.96478e-05 -0.0315785)
(-0.00586734 -0.0096278 0.04963)
(-0.0247697 -0.0124761 0.0880769)
(-0.0510688 -0.0098656 0.0954214)
(-0.0766631 -0.00466434 0.0858779)
(-0.100571 0.00110203 0.0629725)
(-0.1202 0.00572333 0.0257555)
(-0.129407 0.00755002 -0.025287)
(-0.118061 0.0053274 -0.0806316)
(-0.0779645 0.00103251 -0.111341)
(-0.0231955 0.000117136 -0.0697341)
(-0.0089151 -0.0118058 0.0555419)
(-0.0376366 -0.0158703 0.100935)
(-0.076386 -0.0120944 0.107816)
(-0.111145 -0.00452236 0.0919726)
(-0.13979 0.00390325 0.0583108)
(-0.159455 0.0106271 0.00726273)
(-0.164393 0.0132948 -0.0585471)
(-0.144997 0.010215 -0.125511)
(-0.094203 0.00374966 -0.15638)
(-0.0275984 0.000213582 -0.0914583)
(-0.0109271 -0.00904987 0.0568147)
(-0.0461593 -0.0123514 0.103753)
(-0.0926063 -0.00910708 0.108916)
(-0.13178 -0.00269112 0.0885887)
(-0.161099 0.00435649 0.0488684)
(-0.178316 0.00981941 -0.00848902)
(-0.179083 0.0116651 -0.0797318)
(-0.155146 0.00883621 -0.150092)
(-0.10027 0.00345918 -0.179304)
(-0.0292803 0.000232036 -0.102146)
(-0.0119014 -0.00333674 0.0568891)
(-0.0502904 -0.00457502 0.103867)
(-0.100275 -0.00330859 0.107824)
(-0.141017 -0.000832297 0.085274)
(-0.169867 0.00186078 0.0430586)
(-0.185274 0.0039048 -0.0163742)
(-0.183901 0.0045016 -0.0889436)
(-0.158269 0.00335834 -0.159954)
(-0.102313 0.00133331 -0.188248)
(-0.0299016 0.000100637 -0.106298)
(-0.0119014 0.00333671 0.0568891)
(-0.0502904 0.00457499 0.103867)
(-0.100275 0.00330857 0.107824)
(-0.141017 0.000832281 0.085274)
(-0.169867 -0.00186079 0.0430586)
(-0.185274 -0.00390481 -0.0163742)
(-0.183901 -0.00450161 -0.0889436)
(-0.158269 -0.00335835 -0.159954)
(-0.102313 -0.00133331 -0.188248)
(-0.0299016 -0.000100644 -0.106298)
(-0.0109271 0.00904985 0.0568147)
(-0.0461593 0.0123514 0.103753)
(-0.0926063 0.00910706 0.108916)
(-0.13178 0.0026911 0.0885887)
(-0.161099 -0.00435651 0.0488684)
(-0.178316 -0.00981942 -0.00848902)
(-0.179083 -0.0116651 -0.0797318)
(-0.155146 -0.00883622 -0.150092)
(-0.10027 -0.00345918 -0.179304)
(-0.0292803 -0.000232042 -0.102146)
(-0.00891509 0.0118058 0.0555419)
(-0.0376366 0.0158703 0.100935)
(-0.076386 0.0120944 0.107816)
(-0.111145 0.00452234 0.0919727)
(-0.13979 -0.00390326 0.0583108)
(-0.159455 -0.0106271 0.00726273)
(-0.164393 -0.0132948 -0.0585471)
(-0.144997 -0.010215 -0.125511)
(-0.094203 -0.00374967 -0.15638)
(-0.0275984 -0.000213587 -0.0914583)
(-0.00586733 0.00962779 0.0496301)
(-0.0247696 0.0124761 0.0880769)
(-0.0510688 0.00986559 0.0954214)
(-0.076663 0.00466433 0.0858779)
(-0.100571 -0.00110204 0.0629725)
(-0.1202 -0.00572333 0.0257555)
(-0.129407 -0.00755002 -0.0252869)
(-0.118061 -0.0053274 -0.0806316)
(-0.0779645 -0.00103251 -0.111341)
(-0.0231955 -0.000117139 -0.0697341)
(-0.00198466 0.00354747 0.0297476)
(-0.00851434 0.00440049 0.0485495)
(-0.0179514 0.00356426 0.0524936)
(-0.0282168 0.00195357 0.0498661)
(-0.0397734 0.000221248 0.0421042)
(-0.0515365 -0.00108796 0.0278532)
(-0.0597324 -0.00140911 0.00579713)
(-0.0576797 -0.000443596 -0.0213605)
(-0.0391969 0.000744282 -0.0414738)
(-0.012084 -3.96484e-05 -0.0315785)
(-0.00329945 -0.00396173 0.0425695)
(-0.0106604 -0.00452419 0.0653096)
(-0.0189575 -0.00281894 0.0678084)
(-0.0281035 9.25548e-05 0.0626096)
(-0.0404586 0.00343 0.051965)
(-0.0564541 0.00637734 0.0336258)
(-0.0723472 0.00777964 0.00417051)
(-0.0784286 0.00627152 -0.0359669)
(-0.0626889 0.00250609 -0.0716599)
(-0.0228939 -0.000321154 -0.0639753)
(-0.00779444 -0.0104841 0.0701343)
(-0.0280998 -0.0125331 0.118489)
(-0.0531646 -0.00746541 0.124858)
(-0.0769641 0.00140846 0.110939)
(-0.101329 0.0114739 0.0820131)
(-0.125864 0.0200957 0.0356705)
(-0.144675 0.0239215 -0.0310062)
(-0.144255 0.0194444 -0.111766)
(-0.110506 0.00820266 -0.171745)
(-0.038878 -0.000805149 -0.130871)
(-0.010842 -0.0125448 0.0786937)
(-0.0409521 -0.0155804 0.136549)
(-0.0781712 -0.00864222 0.142968)
(-0.110085 0.00353367 0.122455)
(-0.13753 0.0169133 0.0822777)
(-0.160198 0.0275461 0.0213497)
(-0.173326 0.0310851 -0.0618554)
(-0.165084 0.0242414 -0.158338)
(-0.124365 0.0100811 -0.225175)
(-0.043641 -0.000491914 -0.163575)
(-0.0127237 -0.00945543 0.0810728)
(-0.0490792 -0.0119182 0.141393)
(-0.0933943 -0.00620328 0.14631)
(-0.128506 0.00369692 0.121555)
(-0.15497 0.0142332 0.0759959)
(-0.173569 0.0220031 0.00969958)
(-0.18168 0.0237303 -0.0785769)
(-0.169635 0.0176611 -0.179815)
(-0.128017 0.00705842 -0.24865)
(-0.0454105 -0.000197033 -0.178033)
(-0.0135953 -0.0034554 0.081604)
(-0.0528733 -0.00437318 0.142252)
(-0.100268 -0.00219282 0.146036)
(-0.136193 0.00154456 0.119293)
(-0.161307 0.00544069 0.0718206)
(-0.177307 0.00817191 0.00421214)
(-0.183097 0.00860149 -0.0850031)
(-0.170133 0.0062256 -0.18749)
(-0.129123 0.00242902 -0.257126)
(-0.0461644 -3.84947e-05 -0.183422)
(-0.0135953 0.00345538 0.081604)
(-0.0528733 0.00437317 0.142252)
(-0.100268 0.0021928 0.146036)
(-0.136193 -0.00154458 0.119293)
(-0.161307 -0.0054407 0.0718206)
(-0.177307 -0.00817193 0.00421214)
(-0.183097 -0.0086015 -0.0850031)
(-0.170133 -0.00622561 -0.18749)
(-0.129123 -0.00242903 -0.257126)
(-0.0461644 3.84885e-05 -0.183422)
(-0.0127237 0.00945541 0.0810728)
(-0.0490792 0.0119182 0.141393)
(-0.0933943 0.00620327 0.14631)
(-0.128506 -0.00369693 0.121555)
(-0.15497 -0.0142332 0.0759959)
(-0.173569 -0.0220031 0.00969959)
(-0.18168 -0.0237303 -0.0785769)
(-0.169635 -0.0176611 -0.179815)
(-0.128017 -0.00705842 -0.24865)
(-0.0454105 0.000197028 -0.178033)
(-0.010842 0.0125448 0.0786937)
(-0.0409521 0.0155804 0.136549)
(-0.0781712 0.00864221 0.142968)
(-0.110085 -0.00353368 0.122455)
(-0.13753 -0.0169133 0.0822777)
(-0.160198 -0.0275461 0.0213497)
(-0.173325 -0.0310851 -0.0618554)
(-0.165084 -0.0242414 -0.158338)
(-0.124365 -0.0100811 -0.225175)
(-0.043641 0.000491909 -0.163575)
(-0.00779443 0.0104841 0.0701344)
(-0.0280998 0.0125331 0.118489)
(-0.0531646 0.0074654 0.124858)
(-0.0769641 -0.00140846 0.110939)
(-0.101329 -0.0114739 0.0820131)
(-0.125864 -0.0200957 0.0356705)
(-0.144675 -0.0239215 -0.0310062)
(-0.144255 -0.0194444 -0.111766)
(-0.110506 -0.00820266 -0.171745)
(-0.038878 0.000805146 -0.130871)
(-0.00329945 0.00396173 0.0425695)
(-0.0106604 0.00452419 0.0653096)
(-0.0189575 0.00281894 0.0678084)
(-0.0281035 -9.25583e-05 0.0626096)
(-0.0404586 -0.00343 0.051965)
(-0.0564541 -0.00637734 0.0336258)
(-0.0723472 -0.00777963 0.00417051)
(-0.0784286 -0.00627152 -0.0359669)
(-0.0626889 -0.00250609 -0.0716599)
(-0.0228939 0.000321154 -0.0639752)
(-0.00703739 -0.00458854 0.0595169)
(-0.0161242 -0.00469832 0.0811542)
(-0.0199743 -0.0018595 0.078699)
(-0.0240269 0.00265733 0.0690119)
(-0.0333081 0.00796625 0.0552013)
(-0.0507224 0.0131348 0.0338417)
(-0.0743858 0.0163466 -0.0011582)
(-0.0924735 0.0146494 -0.0544583)
(-0.0877341 0.00728399 -0.110845)
(-0.0362228 -0.0013799 -0.117504)
(-0.0125815 -0.0115028 0.0949754)
(-0.0341017 -0.0123892 0.14717)
(-0.0518215 -0.00449213 0.14838)
(-0.0658505 0.00823662 0.12885)
(-0.0819673 0.0227426 0.0957039)
(-0.103415 0.0358218 0.0450032)
(-0.127548 0.0424617 -0.0306439)
(-0.140385 0.0359662 -0.134298)
(-0.127083 0.0159 -0.233346)
(-0.0500256 -0.00439993 -0.221266)
(-0.015289 -0.0131542 0.105292)
(-0.0451567 -0.0149272 0.169626)
(-0.0730345 -0.00485533 0.172149)
(-0.0923865 0.0113789 0.147304)
(-0.108096 0.0289455 0.104482)
(-0.123753 0.0430394 0.0408331)
(-0.138848 0.0477319 -0.0502894)
(-0.142851 0.0372654 -0.171835)
(-0.128363 0.0144195 -0.285845)
(-0.05093 -0.00427512 -0.263426)
(-0.0167222 -0.00965467 0.108109)
(-0.0515684 -0.0111795 0.175922)
(-0.0849527 -0.0032593 0.177826)
(-0.105733 0.00935248 0.150025)
(-0.118632 0.0224242 0.103482)
(-0.128432 0.0319209 0.0360766)
(-0.137354 0.0336215 -0.0589745)
(-0.137884 0.0245995 -0.186154)
(-0.126252 0.00862311 -0.306092)
(-0.0513862 -0.00270418 -0.280481)
(-0.0173286 -0.00348277 0.108779)
(-0.0543898 -0.00405815 0.177249)
(-0.0899751 -0.0011049 0.178414)
(-0.110718 0.00354903 0.14929)
(-0.121549 0.00824993 0.101703)
(-0.128263 0.0114609 0.0337798)
(-0.134791 0.0117269 -0.0618308)
(-0.134947 0.00827301 -0.190818)
(-0.125627 0.00275117 -0.313209)
(-0.0519065 -0.000879185 -0.28678)
(-0.0173286 0.00348276 0.108779)
(-0.0543898 0.00405814 0.177249)
(-0.0899751 0.00110489 0.178414)
(-0.110718 -0.00354904 0.14929)
(-0.121549 -0.00824994 0.101703)
(-0.128263 -0.0114609 0.0337798)
(-0.134791 -0.0117269 -0.0618308)
(-0.134947 -0.00827301 -0.190818)
(-0.125627 -0.00275117 -0.313209)
(-0.0519065 0.00087918 -0.28678)
(-0.0167222 0.00965466 0.108109)
(-0.0515684 0.0111795 0.175922)
(-0.0849527 0.00325929 0.177826)
(-0.105733 -0.00935249 0.150025)
(-0.118632 -0.0224242 0.103482)
(-0.128432 -0.0319209 0.0360766)
(-0.137354 -0.0336215 -0.0589745)
(-0.137884 -0.0245995 -0.186154)
(-0.126252 -0.00862312 -0.306092)
(-0.0513862 0.00270418 -0.280481)
(-0.015289 0.0131542 0.105292)
(-0.0451567 0.0149272 0.169626)
(-0.0730345 0.00485532 0.172149)
(-0.0923865 -0.0113789 0.147304)
(-0.108096 -0.0289455 0.104482)
(-0.123753 -0.0430394 0.0408331)
(-0.138848 -0.0477319 -0.0502894)
(-0.142851 -0.0372654 -0.171835)
(-0.128363 -0.0144195 -0.285845)
(-0.05093 0.00427512 -0.263426)
(-0.0125815 0.0115028 0.0949755)
(-0.0341017 0.0123892 0.14717)
(-0.0518215 0.00449212 0.14838)
(-0.0658505 -0.00823662 0.12885)
(-0.0819673 -0.0227426 0.0957039)
(-0.103415 -0.0358218 0.0450032)
(-0.127548 -0.0424617 -0.0306439)
(-0.140385 -0.0359662 -0.134298)
(-0.127083 -0.0159 -0.233346)
(-0.0500256 0.00439993 -0.221266)
(-0.00703739 0.00458854 0.0595169)
(-0.0161242 0.00469832 0.0811542)
(-0.0199743 0.00185949 0.078699)
(-0.0240269 -0.00265733 0.0690119)
(-0.0333081 -0.00796625 0.0552013)
(-0.0507224 -0.0131348 0.0338417)
(-0.0743858 -0.0163466 -0.0011582)
(-0.0924735 -0.0146494 -0.0544583)
(-0.0877341 -0.00728399 -0.110845)
(-0.0362228 0.0013799 -0.117504)
(-0.0164864 -0.00626856 0.0819319)
(-0.0280708 -0.00637697 0.0927001)
(-0.0176711 -0.00254593 0.080894)
(-0.00836532 0.00344601 0.0645871)
(-0.00694963 0.0104361 0.0476563)
(-0.0186218 0.0177027 0.0254947)
(-0.0455129 0.0232739 -0.0112316)
(-0.0762253 0.0218596 -0.0739365)
(-0.0964991 0.0102287 -0.153245)
(-0.0418441 -0.00613455 -0.196183)
(-0.0254641 -0.0143821 0.122838)
(-0.049318 -0.0150855 0.167555)
(-0.0443888 -0.00537985 0.15857)
(-0.0331778 0.00974487 0.131329)
(-0.0256581 0.0268774 0.0962278)
(-0.0283543 0.0432359 0.0484696)
(-0.0459549 0.0537612 -0.0238107)
(-0.0677267 0.0473852 -0.137252)
(-0.0947586 0.018848 -0.27501)
(-0.0358217 -0.0145147 -0.326981)
(-0.0282469 -0.015218 0.132846)
(-0.0587506 -0.0168986 0.192613)
(-0.0605139 -0.00554869 0.187033)
(-0.0500499 0.0119712 0.156504)
(-0.0374163 0.0308652 0.114409)
(-0.0291311 0.0468361 0.0568801)
(-0.0330738 0.0541538 -0.0271952)
(-0.0429326 0.0433021 -0.157045)
(-0.0743051 0.0136773 -0.315456)
(-0.0274184 -0.0126581 -0.36832)
(-0.0292538 -0.0106328 0.135116)
(-0.0630949 -0.0120907 0.199456)
(-0.0682867 -0.0036017 0.194748)
(-0.0575663 0.00924516 0.163034)
(-0.0412271 0.0225144 0.11898)
(-0.0262819 0.0327103 0.0590825)
(-0.0233234 0.0358892 -0.0278546)
(-0.0291212 0.0267264 -0.16312)
(-0.0658529 0.0073112 -0.329571)
(-0.0256325 -0.00749909 -0.383584)
(-0.0295718 -0.00374323 0.135552)
(-0.0647117 -0.00429142 0.200845)
(-0.0710755 -0.00119858 0.196041)
(-0.0598007 0.00341607 0.163848)
(-0.0415087 0.0080523 0.119467)
(-0.0237207 0.0114142 0.0594095)
(-0.0185456 0.0121698 -0.0279764)
(-0.0240405 0.00872871 -0.165154)
(-0.0639669 0.00222876 -0.334711)
(-0.0258286 -0.00236293 -0.389223)
(-0.0295718 0.00374322 0.135552)
(-0.0647117 0.0042914 0.200845)
(-0.0710755 0.00119857 0.196041)
(-0.0598007 -0.00341608 0.163848)
(-0.0415087 -0.00805231 0.119467)
(-0.0237207 -0.0114143 0.0594096)
(-0.0185456 -0.0121698 -0.0279764)
(-0.0240405 -0.00872872 -0.165154)
(-0.0639669 -0.00222876 -0.334711)
(-0.0258286 0.00236292 -0.389223)
(-0.0292538 0.0106328 0.135116)
(-0.0630949 0.0120907 0.199456)
(-0.0682867 0.00360169 0.194748)
(-0.0575663 -0.00924517 0.163034)
(-0.0412271 -0.0225144 0.11898)
(-0.0262819 -0.0327103 0.0590825)
(-0.0233234 -0.0358892 -0.0278546)
(-0.0291212 -0.0267264 -0.16312)
(-0.0658529 -0.0073112 -0.329571)
(-0.0256325 0.00749908 -0.383584)
(-0.0282469 0.015218 0.132846)
(-0.0587506 0.0168986 0.192613)
(-0.0605139 0.00554868 0.187033)
(-0.0500499 -0.0119712 0.156504)
(-0.0374163 -0.0308652 0.114409)
(-0.0291311 -0.0468361 0.0568801)
(-0.0330738 -0.0541538 -0.0271952)
(-0.0429326 -0.0433021 -0.157045)
(-0.0743051 -0.0136773 -0.315456)
(-0.0274184 0.0126581 -0.36832)
(-0.0254641 0.0143821 0.122838)
(-0.049318 0.0150855 0.167555)
(-0.0443888 0.00537985 0.15857)
(-0.0331778 -0.00974487 0.131329)
(-0.0256581 -0.0268774 0.0962278)
(-0.0283543 -0.0432359 0.0484696)
(-0.0459549 -0.0537612 -0.0238107)
(-0.0677267 -0.0473852 -0.137252)
(-0.0947586 -0.018848 -0.27501)
(-0.0358217 0.0145147 -0.326981)
(-0.0164864 0.00626856 0.0819319)
(-0.0280708 0.00637697 0.0927001)
(-0.0176711 0.00254593 0.080894)
(-0.00836531 -0.00344601 0.0645871)
(-0.00694962 -0.0104361 0.0476563)
(-0.0186218 -0.0177027 0.0254947)
(-0.0455129 -0.0232739 -0.0112316)
(-0.0762253 -0.0218596 -0.0739365)
(-0.0964991 -0.0102287 -0.153245)
(-0.0418441 0.00613455 -0.196183)
(-0.0238318 -0.011224 0.150172)
(-0.0201912 -0.0121166 0.0981662)
(0.0283268 -0.00748489 0.0628886)
(0.0626534 -0.000892586 0.0414848)
(0.0833814 0.00652864 0.0249877)
(0.0854991 0.0144082 0.00711512)
(0.063137 0.0216093 -0.0214931)
(0.0255658 0.020788 -0.0790269)
(-0.0421204 0.00504265 -0.174216)
(-0.00680399 -0.0179495 -0.259849)
(-0.042473 -0.0230258 0.209703)
(-0.0413756 -0.0262003 0.169941)
(0.023717 -0.0167662 0.128346)
(0.0796701 -0.00246889 0.0960884)
(0.124355 0.0138445 0.0662943)
(0.152198 0.0303371 0.0323604)
(0.150302 0.0445351 -0.0171484)
(0.131127 0.0425189 -0.107572)
(0.0402054 0.00986024 -0.256541)
(0.0437707 -0.0320998 -0.369681)
(-0.0477416 -0.0209534 0.219956)
(-0.0509075 -0.0259732 0.190543)
(0.0133025 -0.0171422 0.152018)
(0.073942 -0.00275351 0.11846)
(0.127588 0.0135842 0.0848224)
(0.169393 0.0289547 0.045001)
(0.181698 0.0400731 -0.011495)
(0.176881 0.0352982 -0.110611)
(0.08109 0.00557696 -0.275333)
(0.0632503 -0.022852 -0.395281)
(-0.0487664 -0.0134272 0.220992)
(-0.0536932 -0.0172583 0.194722)
(0.00927953 -0.0112589 0.157752)
(0.0711586 -0.00153028 0.124433)
(0.127874 0.00920361 0.0901921)
(0.174893 0.0188094 0.0489371)
(0.192061 0.0248379 -0.00976232)
(0.191337 0.0207249 -0.111787)
(0.0911995 0.00320926 -0.281957)
(0.0663261 -0.0120104 -0.403958)
(-0.0488171 -0.0045342 0.220798)
(-0.0541337 -0.00590777 0.195061)
(0.00857461 -0.00379918 0.158411)
(0.0710327 -0.000430598 0.125219)
(0.128811 0.00320396 0.0910526)
(0.177402 0.00635617 0.0497112)
(0.195675 0.00817725 -0.00953481)
(0.195169 0.00666201 -0.112684)
(0.0923662 0.00107179 -0.284718)
(0.0659623 -0.0035767 -0.407121)
(-0.0488171 0.00453419 0.220798)
(-0.0541337 0.00590776 0.195061)
(0.00857461 0.00379917 0.158411)
(0.0710327 0.000430589 0.125219)
(0.128811 -0.00320397 0.0910526)
(0.177402 -0.00635617 0.0497112)