/*--------------------------------*- C++ -*----------------------------------*\
  =========                 |
  \\      /  F ield         | OpenFOAM: The Open Source CFD Toolbox
   \\    /   O peration     | Website:  https://openfoam.org
    \\  /    A nd           | Version:  9
     \\/     M anipulation  |
\*---------------------------------------------------------------------------*/
FoamFile
{
    format      ascii;
    class       volScalarField;
    location    "0.02";
    object      p;
}
// * * * * * * * * * * * * * * * * * * * * * * * * * * * * * * * * * * * * * //

dimensions      [0 2 -2 0 0 0 0];

internalField   nonuniform List<scalar> 
8000
(
4.80759e-07
2.40092
3.43208
3.91227
4.20135
4.39024
4.52424
4.62929
4.71937
4.80282
4.88558
4.97315
5.0718
5.19058
5.34447
5.56115
5.89084
6.43162
7.53563
10.0082
0.00710434
2.52839
3.52905
3.97258
4.24027
4.415
4.53958
4.63855
4.72452
4.80483
4.88476
4.96912
5.06351
5.176
5.32026
5.5227
5.8331
6.34646
7.43618
10.0545
0.0541759
2.63731
3.6252
4.04491
4.29254
4.45103
4.5633
4.65323
4.73237
4.80712
4.88193
4.96089
5.04887
5.15315
5.2866
5.47547
5.77102
6.27058
7.36029
10.0517
0.102925
2.70864
3.69354
4.10145
4.336
4.48245
4.5847
4.66665
4.73938
4.80869
4.87848
4.95233
5.03462
5.13224
5.25788
5.43807
5.72558
6.22023
7.31382
10.0338
0.13967
2.75399
3.7383
4.14035
4.36714
4.50574
4.60094
4.67691
4.74459
4.8095
4.87521
4.94501
5.02302
5.11601
5.23666
5.41191
5.69543
6.18845
7.28493
10.0165
0.165136
2.78291
3.767
4.16598
4.38826
4.52192
4.61242
4.68417
4.74815
4.80977
4.87242
4.93925
5.01427
5.10418
5.22179
5.39427
5.67584
6.16832
7.26644
10.0028
0.182153
2.8013
3.78519
4.18247
4.4021
4.5327
4.62015
4.68906
4.75048
4.80976
4.87025
4.93501
5.00801
5.09596
5.21172
5.38266
5.66322
6.1555
7.25443
9.99273
0.193083
2.81278
3.79646
4.19275
4.41082
4.53958
4.62511
4.6922
4.75192
4.80965
4.86869
4.93209
5.00379
5.09052
5.20519
5.37525
5.65528
6.14744
7.24672
9.98583
0.19956
2.81947
3.80299
4.19871
4.41592
4.54362
4.62804
4.69405
4.75275
4.80954
4.8677
4.93028
5.00121
5.08723
5.2013
5.37088
5.65061
6.14269
7.2421
9.98154
0.202567
2.82255
3.80599
4.20145
4.41826
4.54549
4.6294
4.6949
4.75313
4.80947
4.86722
4.92941
4.99999
5.08569
5.19948
5.36884
5.64844
6.14047
7.23992
9.97948
0.202562
2.82255
3.80598
4.20145
4.41826
4.54549
4.6294
4.6949
4.75312
4.80947
4.86722
4.92941
4.99999
5.08569
5.19947
5.36884
5.64844
6.14047
7.23992
9.97948
0.199542
2.81945
3.80297
4.1987
4.4159
4.54361
4.62803
4.69404
4.75274
4.80953
4.8677
4.93027
5.00121
5.08723
5.20129
5.37088
5.6506
6.14269
7.2421
9.98154
0.193052
2.81275
3.79643
4.19272
4.4108
4.53956
4.6251
4.69218
4.75191
4.80964
4.86869
4.93208
5.00378
5.09051
5.20519
5.37525
5.65528
6.14744
7.24672
9.98583
0.182105
2.80125
3.78515
4.18243
4.40207
4.53268
4.62012
4.68904
4.75046
4.80975
4.87024
4.935
5.008
5.09595
5.21172
5.38265
5.66322
6.1555
7.25443
9.99272
0.165069
2.78284
3.76695
4.16593
4.38822
4.52189
4.61239
4.68415
4.74813
4.80975
4.87241
4.93924
5.01426
5.10418
5.22178
5.39427
5.67583
6.16831
7.26643
10.0028
0.139578
2.7539
3.73822
4.14028
4.36709
4.5057
4.60091
4.67688
4.74456
4.80948
4.87519
4.94499
5.02301
5.116
5.23666
5.4119
5.69543
6.18845
7.28493
10.0165
0.102795
2.70852
3.69344
4.10137
4.33594
4.4824
4.58466
4.66661
4.73935
4.80867
4.87846
4.95231
5.0346
5.13223
5.25787
5.43807
5.72557
6.22023
7.31382
10.0338
0.0539817
2.63715
3.62507
4.04481
4.29246
4.45097
4.56325
4.65319
4.73234
4.8071
4.88191
4.96088
5.04886
5.15313
5.2866
5.47547
5.77101
6.27057
7.36029
10.0517
0.00681668
2.52817
3.52889
3.97247
4.24018
4.41493
4.53953
4.63851
4.72449
4.80481
4.88474
4.9691
5.0635
5.17599
5.32025
5.52269
5.8331
6.34646
7.43617
10.0545
-0.000358071
2.40063
3.43188
3.91214
4.20126
4.39017
4.52419
4.62925
4.71934
4.80279
4.88556
4.97313
5.07179
5.19056
5.34446
5.56114
5.89083
6.43161
7.53563
10.0081
2.09767
2.99051
3.54674
3.91748
4.17885
4.36496
4.5038
4.61473
4.70997
4.79777
4.88452
4.97604
5.07907
5.20257
5.35983
5.57169
5.8687
6.28665
6.89713
7.85352
2.10793
3.04006
3.56731
3.92212
4.17893
4.36353
4.50211
4.61338
4.70912
4.79739
4.88446
4.97612
5.07899
5.20182
5.3575
5.56658
5.85913
6.26452
6.85239
7.87778
2.13261
3.09502
3.6066
3.94897
4.19748
4.37566
4.50952
4.61738
4.71051
4.79656
4.88151
4.97085
5.07098
5.19044
5.34199
5.54644
5.83478
6.23541
6.81979
7.88146
2.16323
3.13682
3.64363
3.97844
4.21954
4.3911
4.51952
4.62306
4.71267
4.79569
4.87777
4.9642
5.06117
5.17712
5.32491
5.5257
5.81135
6.21069
6.79674
7.87565
2.1897
3.16807
3.67297
4.00311
4.23881
4.40511
4.5289
4.62852
4.71482
4.79492
4.87429
4.95805
5.05227
5.16541
5.31041
5.50874
5.79277
6.19163
6.77922
7.86627
2.21001
3.19073
3.69467
4.02195
4.25398
4.41647
4.53669
4.63315
4.71667
4.79429
4.87138
4.95293
5.04499
5.156
5.29903
5.49574
5.77879
6.17743
6.76596
7.85678
2.22458
3.20652
3.70992
4.03547
4.26512
4.42499
4.54264
4.63674
4.71813
4.79383
4.86914
4.949
5.03945
5.14895
5.29063
5.48628
5.7687
6.16722
6.75625
7.84883
2.23439
3.217
3.72009
4.0446
4.27276
4.43091
4.54684
4.6393
4.71918
4.7935
4.86754
4.94621
5.03554
5.14402
5.28482
5.47979
5.76181
6.16022
6.74949
7.84289
2.24038
3.22337
3.72627
4.05019
4.27748
4.43462
4.54949
4.64093
4.71986
4.7933
4.86652
4.94444
5.03307
5.14092
5.28118
5.47575
5.75752
6.15586
6.74523
7.83901
2.2432
3.22637
3.72919
4.05284
4.27973
4.43639
4.55076
4.64171
4.72019
4.7932
4.86603
4.94359
5.03188
5.13943
5.27944
5.47382
5.75547
6.15376
6.74317
7.83711
2.24319
3.22636
3.72919
4.05284
4.27973
4.43639
4.55076
4.64171
4.72019
4.7932
4.86603
4.94359
5.03188
5.13943
5.27944
5.47381
5.75547
6.15376
6.74317
7.83711
2.24036
3.22335
3.72626
4.05018
4.27747
4.43461
4.54948
4.64092
4.71985
4.7933
4.86652
4.94444
5.03307
5.14092
5.28118
5.47575
5.75752
6.15586
6.74523
7.83901
2.23436
3.21698
3.72006
4.04458
4.27274
4.43089
4.54682
4.63928
4.71917
4.79349
4.86753
4.94621
5.03554
5.14401
5.28481
5.47979
5.7618
6.16022
6.74949
7.84289
2.22454
3.20647
3.70988
4.03544
4.26509
4.42496
4.54262
4.63672
4.71812
4.79382
4.86913
4.94899
5.03944
5.14894
5.29062
5.48628
5.7687
6.16722
6.75625
7.84882
2.20995
3.19067
3.69461
4.0219
4.25394
4.41644
4.53667
4.63313
4.71665
4.79428
4.87137
4.95292
5.04498
5.15599
5.29902
5.49574
5.77878
6.17743
6.76596
7.85678
2.18962
3.16799
3.6729
4.00305
4.23876
4.40507
4.52887
4.62849
4.71479
4.7949
4.87428
4.95804
5.05226
5.1654
5.3104
5.50873
5.79277
6.19163
6.77922
7.86627
2.16312
3.13672
3.64354
3.97837
4.21948
4.39105
4.51948
4.62302
4.71264
4.79566
4.87776
4.96419
5.06115
5.17711
5.32491
5.5257
5.81135
6.21068
6.79674
7.87565
2.13245
3.09487
3.60649
3.94888
4.1974
4.3756
4.50947
4.61734
4.71048
4.79654
4.88149
4.97084
5.07097
5.19043
5.34199
5.54643
5.83477
6.23541
6.81978
7.88146
2.1077
3.03987
3.56716
3.92201
4.17885
4.36347
4.50206
4.61334
4.70909
4.79736
4.88444
4.97611
5.07898
5.20181
5.35749
5.56657
5.85913
6.26452
6.85239
7.87777
2.09738
2.99028
3.54658
3.91737
4.17877
4.36489
4.50375
4.61469
4.70994
4.79774
4.8845
4.97602
5.07906
5.20256
5.35982
5.57169
5.8687
6.28665
6.89713
7.85351
3.18256
3.47367
3.77193
4.02425
4.22538
4.38315
4.50968
4.6156
4.70905
4.79632
4.88279
4.97358
5.07436
5.19215
5.33607
5.51785
5.75072
6.04126
6.37697
6.69806
3.20677
3.48605
3.77072
4.01738
4.21763
4.37628
4.50437
4.61197
4.70694
4.79558
4.88321
4.975
5.07665
5.1951
5.33925
5.52066
5.75235
6.039
6.36441
6.68321
3.23646
3.51284
3.78893
4.02895
4.22448
4.37979
4.50566
4.61178
4.70569
4.79338
4.88005
4.97073
5.071
5.18777
5.32996
5.50927
5.73929
6.02437
6.34687
6.6696
3.26334
3.53953
3.81127
4.04604
4.23655
4.38756
4.51002
4.61349
4.70525
4.79109
4.87598
4.96482
5.06313
5.1778
5.31786
5.49526
5.72399
6.00857
6.33094
6.65837
3.2852
3.56197
3.83135
4.06242
4.24887
4.39607
4.51525
4.61597
4.70542
4.78922
4.87222
4.9592
5.05564
5.16846
5.30678
5.48275
5.71061
5.99484
6.31753
6.64832
3.30201
3.57953
3.84762
4.07621
4.2597
4.40389
4.5203
4.6186
4.70593
4.78785
4.86911
4.95444
5.04928
5.16059
5.29755
5.47248
5.69973
5.98368
6.30671
6.63954
3.31428
3.59247
3.85984
4.08685
4.26829
4.41028
4.52458
4.62095
4.70655
4.78691
4.86674
4.95073
5.04431
5.15445
5.29042
5.46458
5.69138
5.97516
6.2984
6.6324
3.3227
3.60141
3.86839
4.09442
4.27452
4.41502
4.52782
4.6228
4.70712
4.78631
4.86507
4.94806
5.04073
5.15004
5.28531
5.45894
5.68541
5.96905
6.29242
6.62708
3.32791
3.60698
3.87375
4.09922
4.27852
4.41811
4.52997
4.62405
4.70754
4.78596
4.86402
4.94636
5.03843
5.14722
5.28204
5.45533
5.68159
5.96514
6.28856
6.62357
3.33039
3.60965
3.87633
4.10154
4.28047
4.41962
4.53104
4.62468
4.70776
4.78581
4.86351
4.94554
5.03731
5.14584
5.28045
5.45358
5.67973
5.96323
6.28668
6.62184
3.33039
3.60964
3.87633
4.10153
4.28047
4.41962
4.53104
4.62467
4.70776
4.78581
4.86351
4.94554
5.03731
5.14584
5.28045
5.45358
5.67973
5.96323
6.28668
6.62184
3.32789
3.60697
3.87374
4.0992
4.27851
4.4181
4.52996
4.62404
4.70753
4.78596
4.86401
4.94636
5.03843
5.14722
5.28204
5.45533
5.68159
5.96514
6.28856
6.62357
3.32267
3.60138
3.86836
4.09439
4.2745
4.415
4.52781
4.62278
4.70711
4.7863
4.86506
4.94806
5.04072
5.15004
5.28531
5.45894
5.68541
5.96905
6.29242
6.62707
3.31424
3.59243
3.8598
4.08682
4.26826
4.41026
4.52456
4.62093
4.70654
4.7869
4.86673
4.95072
5.0443
5.15445
5.29042
5.46458
5.69138
5.97515
6.2984
6.6324
3.30196
3.57948
3.84757
4.07617
4.25966
4.40386
4.52027
4.61858
4.70591
4.78783
4.8691
4.95443
5.04927
5.16058
5.29755
5.47247
5.69973
5.98368
6.30671
6.63953
3.28512
3.5619
3.83129
4.06236
4.24883
4.39603
4.51521
4.61595
4.7054
4.7892
4.8722
4.95919
5.05563
5.16845
5.30677
5.48275
5.71061
5.99483
6.31753
6.64832
3.26323
3.53943
3.81118
4.04597
4.23649
4.38751
4.50998
4.61346
4.70523
4.79107
4.87596
4.96481
5.06312
5.1778
5.31785
5.49525
5.72398
6.00857
6.33094
6.65837
3.23633
3.51272
3.78883
4.02887
4.22442
4.37974
4.50562
4.61175
4.70566
4.79336
4.88003
4.97071
5.07099
5.18776
5.32995
5.50927
5.73929
6.02436
6.34687
6.66959
3.2066
3.48591
3.7706
4.01729
4.21755
4.37622
4.50432
4.61193
4.70692
4.79556
4.88319
4.97499
5.07664
5.19509
5.33925
5.52065
5.75235
6.03899
6.36441
6.68321
3.18236
3.4735
3.7718
4.02415
4.2253
4.38309
4.50963
4.61556
4.70902
4.7963
4.88277
4.97356
5.07434
5.19214
5.33606
5.51785
5.75072
6.04126
6.37697
6.69805
3.74444
3.83857
3.99741
4.15872
4.30271
4.42702
4.53452
4.62955
4.71651
4.79946
4.8822
4.96856
5.06265
5.16909
5.29296
5.43911
5.61019
5.80124
5.98527
6.09216
3.77133
3.84209
3.9929
4.15164
4.29531
4.42062
4.52964
4.62627
4.71475
4.79903
4.88298
4.97043
5.06554
5.17289
5.29748
5.44395
5.61469
5.80421
5.98162
6.06697
3.8031
3.8599
4.00374
4.15774
4.29794
4.42102
4.52873
4.62457
4.71255
4.79645
4.87996
4.96687
5.06128
5.16779
5.29142
5.43685
5.60651
5.7947
5.96822
6.04253
3.82918
3.8797
4.01888
4.16856
4.30488
4.42483
4.53017
4.62426
4.71084
4.79353
4.8759
4.96164
5.05481
5.16003
5.28239
5.42669
5.5954
5.78266
5.95429
6.02494
3.84902
3.89707
4.0334
4.17983
4.31289
4.42992
4.53281
4.6249
4.70982
4.79107
4.87211
4.95655
5.04844
5.15243
5.27365
5.41701
5.58499
5.77159
5.94234
6.01224
3.86379
3.91111
4.04579
4.18998
4.32055
4.43516
4.53588
4.6261
4.7094
4.78922
4.86896
4.95217
5.04289
5.14581
5.26606
5.40866
5.57609
5.76224
5.93263
6.00272
3.87444
3.92175
4.05551
4.19821
4.327
4.43978
4.53877
4.62744
4.70936
4.78795
4.86656
4.94873
5.03848
5.14051
5.26003
5.40203
5.56903
5.75487
5.92512
5.99561
3.88173
3.92927
4.06253
4.20428
4.33189
4.44339
4.54113
4.62863
4.7095
4.78714
4.86487
4.94624
5.03526
5.13663
5.2556
5.39716
5.56385
5.74949
5.9197
5.99052
3.88625
3.93404
4.06704
4.20825
4.33513
4.44583
4.54276
4.62951
4.70967
4.78667
4.86382
4.94465
5.03317
5.13411
5.25272
5.39399
5.56048
5.74599
5.91618
5.98724
3.88841
3.93634
4.06924
4.21019
4.33674
4.44706
4.5436
4.62996
4.70978
4.78645
4.86331
4.94387
5.03215
5.13288
5.25131
5.39243
5.55882
5.74427
5.91446
5.98563
3.88841
3.93633
4.06923
4.21019
4.33674
4.44705
4.54359
4.62996
4.70978
4.78645
4.86331
4.94387
5.03215
5.13288
5.25131
5.39243
5.55882
5.74427
5.91446
5.98563
3.88624
3.93402
4.06703
4.20823
4.33512
4.44582
4.54276
4.6295
4.70967
4.78666
4.86381
4.94464
5.03317
5.13411
5.25272
5.39399
5.56047
5.74599
5.91618
5.98724
3.8817
3.92925
4.06251
4.20426
4.33187
4.44338
4.54112
4.62862
4.70949
4.78713
4.86487
4.94624
5.03525
5.13663
5.2556
5.39716
5.56385
5.74949
5.9197
5.99052
3.8744
3.92172
4.05548
4.19818
4.32698
4.43976
4.53875
4.62742
4.70935
4.78794
4.86655
4.94872
5.03847
5.1405
5.26003
5.40202
5.56903
5.75487
5.92512
5.99561
3.86374
3.91106
4.04575
4.18994
4.32051
4.43513
4.53585
4.62608
4.70938
4.78921
4.86895
4.95216
5.04288
5.1458
5.26606
5.40866
5.57609
5.76224
5.93263
6.00272
3.84896
3.897
4.03334
4.17978
4.31285
4.42989
4.53278
4.62488
4.7098
4.79105
4.87209
4.95654
5.04843
5.15242
5.27364
5.417
5.58499
5.77159
5.94234
6.01224
3.82909
3.87962
4.01881
4.1685
4.30483
4.42479
4.53013
4.62423
4.71081
4.79351
4.87588
4.96162
5.0548
5.16002
5.28239
5.42668
5.5954
5.78265
5.95429
6.02494
3.803
3.8598
4.00366
4.15767
4.29789
4.42097
4.52869
4.62454
4.71253
4.79643
4.87994
4.96686
5.06127
5.16778
5.29141
5.43684
5.60651
5.7947
5.96822
6.04253
3.77121
3.84197
3.99281
4.15156
4.29525
4.42057
4.5296
4.62624
4.71472
4.79901
4.88296
4.97042
5.06552
5.17288
5.29747
5.44395
5.61469
5.80421
5.98161
6.06697
3.7443
3.83845
3.99731
4.15863
4.30264
4.42697
4.53448
4.62952
4.71648
4.79944
4.88219
4.96855
5.06264
5.16908
5.29295
5.43911
5.61019
5.80124
5.98527
6.09216
4.0856
4.10742
4.18832
4.288
4.38802
4.48273
4.57074
4.65285
4.73084
4.80695
4.88349
4.96292
5.04779
5.14062
5.24349
5.35703
5.47873
5.60002
5.69676
5.72255
4.11036
4.10858
4.18337
4.28178
4.38192
4.47761
4.56693
4.65038
4.72967
4.80692
4.88452
4.96496
5.05084
5.14467
5.24849
5.36275
5.4846
5.60501
5.69579
5.69661
4.14072
4.12227
4.19062
4.28536
4.38291
4.47704
4.5655
4.6485
4.72755
4.80466
4.88212
4.96238
5.04802
5.14159
5.24512
5.35899
5.48006
5.59889
5.68463
5.66871
4.16558
4.1382
4.20171
4.29278
4.38724
4.479
4.56573
4.64747
4.72557
4.8019
4.87864
4.9582
5.04312
5.13599
5.23887
5.35207
5.47227
5.58971
5.67218
5.64801
4.18414
4.15245
4.2128
4.30098
4.39274
4.48219
4.56704
4.64728
4.72416
4.79946
4.87528
4.95396
5.03805
5.13014
5.23231
5.34487
5.46434
5.58073
5.6613
5.63355
4.19766
4.16416
4.2226
4.30868
4.39832
4.4858
4.56893
4.64771
4.72335
4.79757
4.87243
4.95022
5.03349
5.12483
5.22633
5.33829
5.45717
5.57285
5.65241
5.62332
4.20724
4.17315
4.23049
4.31516
4.40324
4.48919
4.5709
4.64843
4.72298
4.79624
4.87022
4.94722
5.02976
5.12045
5.22139
5.33285
5.45128
5.56648
5.64554
5.61607
4.21374
4.17958
4.23631
4.32007
4.40709
4.49195
4.57261
4.64918
4.72287
4.79537
4.86866
4.94503
5.027
5.11718
5.21767
5.32876
5.44686
5.56176
5.64057
5.61108
4.21775
4.18368
4.2401
4.32333
4.4097
4.49386
4.57384
4.64978
4.72288
4.79485
4.86767
4.94361
5.02519
5.11502
5.21521
5.32605
5.44393
5.55865
5.63736
5.60794
4.21966
4.18567
4.24196
4.32494
4.41102
4.49484
4.57448
4.6501
4.72291
4.79462
4.86719
4.94291
5.02429
5.11395
5.21399
5.3247
5.44248
5.55712
5.63578
5.60642
4.21966
4.18566
4.24196
4.32494
4.41101
4.49483
4.57448
4.6501
4.72291
4.79461
4.86719
4.94291
5.02429
5.11395
5.21399
5.3247
5.44248
5.55712
5.63578
5.60642
4.21774
4.18366
4.24009
4.32332
4.40969
4.49385
4.57383
4.64977
4.72288
4.79485
4.86766
4.9436
5.02518
5.11501
5.21521
5.32604
5.44393
5.55865
5.63736
5.60794
4.21372
4.17955
4.23629
4.32005
4.40708
4.49193
4.5726
4.64917
4.72286
4.79536
4.86865
4.94502
5.02699
5.11717
5.21767
5.32876
5.44685
5.56175
5.64057
5.61108
4.20721
4.17312
4.23046
4.31513
4.40322
4.48917
4.57088
4.64842
4.72297
4.79623
4.87021
4.94721
5.02976
5.12045
5.22138
5.33285
5.45128
5.56648
5.64554
5.61607
4.19761
4.16411
4.22256
4.30865
4.39829
4.48578
4.5689
4.64769
4.72333
4.79756
4.87242
4.95021
5.03348
5.12482
5.22632
5.33829
5.45717
5.57284
5.65241
5.62332
4.18408
4.15239
4.21275
4.30093
4.3927
4.48216
4.56701
4.64726
4.72415
4.79945
4.87527
4.95395
5.03804
5.13014
5.23231
5.34486
5.46433
5.58073
5.6613
5.63355
4.16551
4.13813
4.20165
4.29273
4.3872
4.47897
4.5657
4.64745
4.72555
4.80188
4.87863
4.95818
5.04311
5.13599
5.23886
5.35207
5.47227
5.5897
5.67217
5.64801
4.14064
4.12219
4.19055
4.2853
4.38286
4.477
4.56546
4.64847
4.72753
4.80465
4.88211
4.96237
5.04801
5.14158
5.24512
5.35899
5.48005
5.59889
5.68463
5.66871
4.11027
4.10849
4.18329
4.28172
4.38186
4.47757
4.5669
4.65035
4.72965
4.8069
4.88451
4.96495
5.05082
5.14466
5.24848
5.36275
5.48459
5.605
5.69578
5.69661
4.0855
4.10733
4.18824
4.28793
4.38797
4.48268
4.5707
4.65282
4.73082
4.80693
4.88347
4.9629
5.04778
5.14061
5.24349
5.35703
5.47873
5.60002
5.69676
5.72255
4.30584
4.30202
4.34184
4.40263
4.4712
4.54208
4.61252
4.68166
4.74971
4.81754
4.8863
4.95727
5.03168
5.11045
5.19372
5.27996
5.36496
5.44065
5.4898
5.48581
4.32613
4.30227
4.33732
4.39752
4.46645
4.53824
4.60977
4.67997
4.74904
4.81779
4.88742
4.95924
5.03452
5.11422
5.19842
5.28547
5.37079
5.44588
5.48982
5.46345
4.35298
4.31342
4.34282
4.40016
4.46715
4.5378
4.60871
4.6786
4.74753
4.81624
4.88587
4.9577
5.03301
5.11275
5.19698
5.28387
5.36846
5.44178
5.48036
5.43684
4.37581
4.32686
4.35167
4.40591
4.47043
4.53924
4.60882
4.67776
4.74599
4.81417
4.88335
4.95478
5.02973
5.10912
5.19302
5.27944
5.36309
5.43465
5.46926
5.4159
4.39305
4.33906
4.36071
4.4124
4.47468
4.54163
4.60973
4.67751
4.74482
4.81225
4.88078
4.95164
5.02606
5.10498
5.18842
5.2743
5.35712
5.42731
5.4594
5.40099
4.40559
4.34917
4.36882
4.41861
4.47907
4.54441
4.61112
4.67774
4.74409
4.8107
4.87852
4.94875
5.0226
5.101
5.18395
5.2693
5.35145
5.42068
5.45128
5.39054
4.41441
4.35698
4.37544
4.42391
4.48302
4.54707
4.61263
4.67823
4.74371
4.80957
4.87673
4.94636
5.01967
5.09759
5.18009
5.26499
5.34662
5.41522
5.44501
5.38331
4.42034
4.36258
4.38037
4.42798
4.48616
4.54927
4.61396
4.67878
4.74356
4.80881
4.87543
4.94457
5.01744
5.09496
5.1771
5.26166
5.34292
5.41111
5.44049
5.37844
4.42397
4.36617
4.3836
4.43071
4.48831
4.55082
4.61493
4.67922
4.74353
4.80835
4.87459
4.94339
5.01596
5.0932
5.17508
5.2594
5.34044
5.40839
5.43756
5.37544
4.4257
4.36791
4.3852
4.43207
4.48939
4.55162
4.61544
4.67947
4.74354
4.80814
4.87418
4.94281
5.01521
5.09231
5.17407
5.25827
5.33919
5.40704
5.43613
5.374
4.42569
4.3679
4.3852
4.43207
4.48939
4.55162
4.61544
4.67947
4.74353
4.80814
4.87418
4.94281
5.01521
5.09231
5.17407
5.25827
5.33919
5.40704
5.43613
5.374
4.42396
4.36615
4.38359
4.4307
4.4883
4.55082
4.61492
4.67922
4.74353
4.80835
4.87459
4.94339
5.01595
5.09319
5.17508
5.2594
5.34044
5.40839
5.43756
5.37544
4.42032
4.36256
4.38035
4.42797
4.48614
4.54926
4.61395
4.67877
4.74355
4.8088
4.87542
4.94456
5.01744
5.09496
5.1771
5.26165
5.34292
5.41111
5.44048
5.37844
4.41438
4.35695
4.37541
4.42389
4.483
4.54705
4.61261
4.67822
4.7437
4.80956
4.87672
4.94635
5.01966
5.09758
5.18009
5.26499
5.34662
5.41521
5.44501
5.3833
4.40555
4.34913
4.36878
4.41858
4.47905
4.54439
4.6111
4.67772
4.74407
4.81069
4.87851
4.94874
5.02259
5.10099
5.18394
5.2693
5.35144
5.42068
5.45128
5.39054
4.393
4.33901
4.36066
4.41236
4.47464
4.5416
4.60971
4.67749
4.7448
4.81223
4.88077
4.95163
5.02605
5.10498
5.18842
5.27429
5.35712
5.42731
5.45939
5.40099
4.37575
4.3268
4.35162
4.40587
4.4704
4.53921
4.60879
4.67773
4.74597
4.81415
4.88334
4.95477
5.02972
5.10912
5.19302
5.27943
5.36308
5.43465
5.46926
5.4159
4.35291
4.31336
4.34276
4.40011
4.46711
4.53776
4.60868
4.67857
4.74751
4.81623
4.88585
4.95769
5.033
5.11274
5.19698
5.28387
5.36845
5.44178
5.48036
5.43684
4.32606
4.3022
4.33726
4.39747
4.4664
4.5382
4.60974
4.67994
4.74902
4.81777
4.8874
4.95923
5.03451
5.11421
5.19842
5.28547
5.37078
5.44588
5.48982
5.46345
4.30577
4.30195
4.34177
4.40257
4.47115
4.54204
4.61249
4.68163
4.74968
4.81752
4.88629
4.95726
5.03167
5.11045
5.19371
5.27996
5.36496
5.44065
5.4898
5.48581
4.45482
4.44365
4.46252
4.49954
4.5465
4.59922
4.65496
4.71221
4.77041
4.82953
4.88986
4.95179
5.01556
5.08104
5.14727
5.2119
5.27074
5.31761
5.34167
5.32885
4.47059
4.44351
4.45865
4.49538
4.54278
4.59631
4.65295
4.71105
4.77003
4.82986
4.89088
4.95349
5.01798
5.08424
5.15128
5.21665
5.27583
5.32226
5.34203
5.31112
4.49332
4.45278
4.46313
4.49762
4.54356
4.59626
4.65244
4.71032
4.76922
4.82906
4.89013
4.95284
5.01747
5.08388
5.15105
5.21628
5.27468
5.31928
5.33399
5.2879
4.51358
4.4643
4.47054
4.50245
4.54642
4.59769
4.65285
4.71
4.76837
4.82784
4.88864
4.95113
5.01559
5.08184
5.14879
5.21357
5.27094
5.3136
5.32422
5.26851
4.52926
4.47492
4.4782
4.50791
4.55003
4.59983
4.65382
4.71006
4.76773
4.82664
4.88699
4.9491
5.01323
5.07918
5.14578
5.21003
5.26646
5.30756
5.3154
5.25426
4.54078
4.48379
4.48513
4.51315
4.55375
4.60222
4.6551
4.71042
4.76734
4.82563
4.88545
4.94711
5.01084
5.07641
5.14261
5.20635
5.26201
5.30197
5.30809
5.24417
4.5489
4.49068
4.49082
4.51765
4.55709
4.60449
4.65642
4.71093
4.76716
4.82486
4.88418
4.94539
5.00872
5.07392
5.13974
5.20303
5.25812
5.29731
5.30243
5.23721
4.55435
4.49562
4.49509
4.52113
4.55974
4.60636
4.65757
4.71144
4.76711
4.82433
4.88322
4.94406
5.00705
5.07193
5.13743
5.20039
5.25507
5.29378
5.29835
5.23259
4.55767
4.4988
4.49789
4.52347
4.56157
4.60768
4.65841
4.71184
4.76712
4.824
4.88259
4.94317
5.00591
5.07056
5.13584
5.19856
5.253
5.29143
5.29572
5.22976
4.55925
4.50034
4.49928
4.52464
4.5625
4.60835
4.65884
4.71206
4.76714
4.82385
4.88228
4.94272
5.00533
5.06987
5.13504
5.19764
5.25195
5.29025
5.29444
5.22842
4.55924
4.50034
4.49928
4.52463
4.56249
4.60835
4.65884
4.71206
4.76714
4.82384
4.88228
4.94271
5.00533
5.06987
5.13503
5.19764
5.25195
5.29025
5.29444
5.22842
4.55766
4.49879
4.49788
4.52346
4.56156
4.60767
4.6584
4.71184
4.76712
4.824
4.88259
4.94316
5.00591
5.07056
5.13584
5.19856
5.253
5.29143
5.29572
5.22976
4.55433
4.49561
4.49507
4.52111
4.55973
4.60635
4.65756
4.71143
4.7671
4.82432
4.88321
4.94406
5.00705
5.07193
5.13743
5.20038
5.25507
5.29378
5.29835
5.23259
4.54888
4.49065
4.4908
4.51763
4.55707
4.60447
4.65641
4.71092
4.76715
4.82485
4.88417
4.94539
5.00872
5.07392
5.13973
5.20303
5.25812
5.29731
5.30243
5.23721
4.54075
4.48376
4.4851
4.51313
4.55373
4.6022
4.65508
4.71041
4.76733
4.82562
4.88544
4.9471
5.01083
5.07641
5.14261
5.20634
5.26201
5.30197
5.30809
5.24417
4.52922
4.47488
4.47816
4.50788
4.55001
4.5998
4.6538
4.71005
4.76772
4.82663
4.88698
4.94909
5.01322
5.07917
5.14577
5.21003
5.26646
5.30755
5.3154
5.25426
4.51353
4.46426
4.4705
4.50242
4.54639
4.59766
4.65283
4.70998
4.76836
4.82783
4.88862
4.95112
5.01558
5.08184
5.14879
5.21357
5.27094
5.3136
5.32422
5.26851
4.49327
4.45273
4.46308
4.49758
4.54353
4.59623
4.65242
4.7103
4.7692
4.82904
4.89012
4.95283
5.01746
5.08388
5.15104
5.21628
5.27468
5.31928
5.33399
5.2879
4.47053
4.44346
4.4586
4.49534
4.54274
4.59628
4.65292
4.71103
4.77001
4.82985
4.89087
4.95348
5.01797
5.08423
5.15128
5.21665
5.27583
5.32226
5.34203
5.31112
4.45476
4.44359
4.46247
4.4995
4.54646
4.59918
4.65493
4.71219
4.77039
4.82951
4.88985
4.95177
5.01555
5.08103
5.14726
5.2119
5.27074
5.31761
5.34167
5.32885
4.56005
4.54809
4.55638
4.57907
4.61148
4.65079
4.69472
4.74169
4.79077
4.84144
4.89341
4.94645
5.00018
5.05381
5.10591
5.15406
5.19472
5.22366
5.23464
5.22076
4.57213
4.54776
4.55309
4.57562
4.60846
4.64847
4.69314
4.7408
4.79049
4.84171
4.89421
4.94779
5.00209
5.05635
5.10914
5.15791
5.19889
5.2275
5.23505
5.20713
4.59094
4.55548
4.55682
4.57756
4.6093
4.64872
4.69308
4.74058
4.79022
4.84148
4.89406
4.94777
5.00222
5.05666
5.10954
5.15814
5.19833
5.22519
5.22827
5.18775
4.60845
4.56533
4.56311
4.58172
4.61191
4.65023
4.69381
4.74076
4.79002
4.84101
4.89342
4.94701
5.00139
5.05573
5.10842
5.15654
5.19566
5.22057
5.21982
5.17074
4.62239
4.57457
4.56969
4.58643
4.61511
4.65227
4.69494
4.74119
4.78991
4.84049
4.89259
4.94592
5.00008
5.0542
5.10657
5.15414
5.19226
5.21555
5.21207
5.15782
4.63279
4.58236
4.57569
4.59097
4.61838
4.65446
4.69625
4.74178
4.78992
4.84002
4.89173
4.94474
4.9986
5.05242
5.10443
5.15147
5.18876
5.21086
5.2056
5.14853
4.64017
4.58844
4.58065
4.59487
4.62129
4.6565
4.69752
4.7424
4.79
4.83965
4.89097
4.94364
4.9972
5.05071
5.10237
5.14896
5.18563
5.2069
5.20057
5.14209
4.64514
4.59283
4.58437
4.59789
4.62361
4.65816
4.69859
4.74296
4.79011
4.83938
4.89036
4.94275
4.99603
5.04928
5.10065
5.1469
5.18315
5.20389
5.19695
5.13782
4.64817
4.59565
4.58683
4.59992
4.6252
4.65932
4.69936
4.74337
4.79021
4.8392
4.88995
4.94212
4.99522
5.04827
5.09944
5.14546
5.18144
5.20187
5.19461
5.13523
4.64961
4.59702
4.58805
4.60094
4.62601
4.65992
4.69975
4.74358
4.79026
4.83912
4.88975
4.94181
4.99479
5.04775
5.09882
5.14472
5.18057
5.20086
5.19347
5.134
4.64961
4.59702
4.58805
4.60094
4.62601
4.65991
4.69975
4.74358
4.79026
4.83912
4.88975
4.9418
4.99479
5.04774
5.09882
5.14472
5.18057
5.20086
5.19347
5.134
4.64817
4.59564
4.58682
4.59992
4.6252
4.65931
4.69935
4.74336
4.7902
4.8392
4.88995
4.94212
4.99521
5.04827
5.09944
5.14546
5.18143
5.20187
5.19461
5.13523
4.64512
4.59281
4.58436
4.59788
4.6236
4.65815
4.69858
4.74295
4.7901
4.83937
4.89036
4.94274
4.99603
5.04928
5.10065
5.1469
5.18314
5.20389
5.19695
5.13782
4.64015
4.58842
4.58063
4.59485
4.62128
4.65648
4.69751
4.74239
4.78999
4.83964
4.89096
4.94363
4.99719
5.0507
5.10237
5.14895
5.18563
5.2069
5.20057
5.14209
4.63276
4.58233
4.57567
4.59095
4.61836
4.65444
4.69623
4.74176
4.78991
4.84001
4.89172
4.94473
4.9986
5.05241
5.10443
5.15146
5.18876
5.21086
5.2056
5.14853
4.62236
4.57453
4.56966
4.5864
4.61509
4.65224
4.69492
4.74118
4.7899
4.84048
4.89258
4.94591
5.00008
5.05419
5.10657
5.15414
5.19225
5.21555
5.21207
5.15782
4.60841
4.5653
4.56308
4.58169
4.61188
4.6502
4.69379
4.74074
4.79
4.841
4.89341
4.947
5.00138
5.05573
5.10842
5.15654
5.19565
5.22057
5.21982
5.17074
4.5909
4.55544
4.55678
4.57753
4.60927
4.64869
4.69305
4.74056
4.79021
4.84146
4.89405
4.94776
5.00222
5.05665
5.10954
5.15814
5.19833
5.22519
5.22827
5.18775
4.57209
4.54772
4.55305
4.57558
4.60842
4.64844
4.69312
4.74078
4.79047
4.8417
4.8942
4.94778
5.00208
5.05635
5.10913
5.15791
5.19889
5.2275
5.23505
5.20713
4.56
4.54804
4.55634
4.57904
4.61144
4.65076
4.69469
4.74167
4.79076
4.84143
4.8934
4.94644
5.00017
5.0538
5.10591
5.15405
5.19472
5.22366
5.23464
5.22076
4.63671
4.62601
4.62904
4.64312
4.6658
4.69535
4.73001
4.76837
4.80939
4.85229
4.89645
4.94126
4.98595
5.02946
5.07023
5.10607
5.13429
5.15219
5.15646
5.14405
4.64598
4.6256
4.62624
4.64021
4.66328
4.69342
4.72869
4.76759
4.80909
4.85242
4.89699
4.94222
4.98737
5.03139
5.07271
5.10909
5.1376
5.15525
5.15682
5.13364
4.66136
4.63199
4.62934
4.64187
4.6641
4.69381
4.72887
4.76769
4.80917
4.85254
4.8972
4.94255
4.98784
5.03199
5.07337
5.10953
5.13729
5.15337
5.15117
5.11784
4.67622
4.64035
4.63468
4.64546
4.66645
4.69532
4.7298
4.76821
4.80941
4.8526
4.89714
4.94243
4.98767
5.03175
5.07292
5.10858
5.13529
5.14956
5.14397
5.10339
4.68836
4.64832
4.64034
4.64954
4.66931
4.69726
4.73104
4.76891
4.80971
4.85259
4.89691
4.94202
4.9871
5.03098
5.07184
5.10694
5.13266
5.14538
5.13727
5.0921
4.69756
4.65512
4.64554
4.65348
4.67221
4.6993
4.73238
4.76969
4.81003
4.85256
4.89659
4.94145
4.9863
5.02992
5.07043
5.10499
5.12989
5.14143
5.13164
5.08385
4.70417
4.66046
4.64986
4.65689
4.67479
4.70116
4.73363
4.77042
4.81034
4.85252
4.89625
4.94085
4.98545
5.0288
5.06899
5.1031
5.12737
5.13809
5.12724
5.07809
4.70864
4.66434
4.65312
4.65953
4.67683
4.70266
4.73465
4.77103
4.8106
4.85247
4.89595
4.94032
4.9847
5.02783
5.06774
5.10152
5.12535
5.13553
5.12407
5.07425
4.71139
4.66684
4.65528
4.66131
4.67824
4.70371
4.73537
4.77147
4.81079
4.85244
4.89573
4.93993
4.98415
5.02711
5.06683
5.10039
5.12394
5.13381
5.12202
5.07193
4.71268
4.66805
4.65635
4.6622
4.67895
4.70424
4.73574
4.77169
4.81088
4.85243
4.89561
4.93973
4.98386
5.02673
5.06636
5.09981
5.12323
5.13295
5.12103
5.07083
4.71268
4.66805
4.65634
4.6622
4.67894
4.70424
4.73574
4.77169
4.81088
4.85243
4.89561
4.93972
4.98386
5.02673
5.06636
5.09981
5.12323
5.13295
5.12103
5.07083
4.71138
4.66683
4.65527
4.6613
4.67823
4.7037
4.73537
4.77146
4.81078
4.85244
4.89573
4.93993
4.98415
5.02711
5.06683
5.10039
5.12394
5.13381
5.12202
5.07193
4.70863
4.66433
4.65311
4.65952
4.67682
4.70265
4.73464
4.77103
4.81059
4.85247
4.89594
4.94031
4.9847
5.02782
5.06774
5.10152
5.12534
5.13553
5.12407
5.07426
4.70416
4.66045
4.64984
4.65687
4.67477
4.70115
4.73362
4.77041
4.81033
4.85251
4.89624
4.94084
4.98545
5.0288
5.06898
5.1031
5.12737
5.13809
5.12724
5.07809
4.69754
4.6551
4.64552
4.65347
4.67219
4.69928
4.73237
4.76968
4.81002
4.85255
4.89658
4.94144
4.9863
5.02991
5.07042
5.10499
5.12989
5.14143
5.13164
5.08385
4.68833
4.64829
4.64031
4.64951
4.66929
4.69724
4.73103
4.7689
4.8097
4.85258
4.8969
4.94201
4.9871
5.03097
5.07183
5.10693
5.13265
5.14538
5.13727
5.09211
4.67619
4.64032
4.63465
4.64543
4.66643
4.6953
4.72978
4.76819
4.80939
4.85258
4.89713
4.94242
4.98767
5.03174
5.07291
5.10858
5.13529
5.14956
5.14397
5.10339
4.66132
4.63196
4.62931
4.64184
4.66408
4.69379
4.72885
4.76767
4.80915
4.85253
4.89719
4.94254
4.98783
5.03199
5.07336
5.10953
5.13729
5.15337
5.15117
5.11784
4.64594
4.62557
4.62621
4.64018
4.66325
4.69339
4.72866
4.76757
4.80907
4.8524
4.89698
4.94221
4.98736
5.03138
5.07271
5.10908
5.1376
5.15525
5.15682
5.13364
4.63668
4.62597
4.629
4.64309
4.66578
4.69532
4.72999
4.76835
4.80937
4.85227
4.89644
4.94125
4.98595
5.02946
5.07023
5.10607
5.13429
5.15219
5.15646
5.14405
4.69365
4.68464
4.68512
4.69402
4.7102
4.73266
4.76013
4.79143
4.82553
4.86156
4.89874
4.93625
4.97315
5.00828
5.04016
5.06697
5.08674
5.09788
5.09881
5.08844
4.70081
4.68422
4.68276
4.69156
4.70806
4.73101
4.75897
4.7907
4.82518
4.86155
4.89905
4.93689
4.97415
5.00968
5.04202
5.06927
5.08931
5.10028
5.0991
5.08047
4.71333
4.68948
4.68532
4.69295
4.7088
4.73143
4.75926
4.79094
4.82542
4.86184
4.89942
4.93735
4.97472
5.01035
5.0427
5.06973
5.08909
5.0987
5.09442
5.06772
4.7258
4.69652
4.68982
4.69601
4.71087
4.73285
4.76024
4.79162
4.8259
4.86219
4.89969
4.93759
4.97492
5.01047
5.04259
5.06913
5.08753
5.09553
5.08837
5.05567
4.73621
4.70333
4.69466
4.69952
4.71339
4.73464
4.7615
4.79247
4.82645
4.86251
4.89984
4.9376
4.9748
5.01016
5.04198
5.06797
5.08543
5.09203
5.08266
5.04605
4.74422
4.70921
4.69914
4.70294
4.71594
4.7365
4.76281
4.79334
4.82697
4.86276
4.89988
4.93745
4.97445