/*--------------------------------*- C++ -*----------------------------------*\
  =========                 |
  \\      /  F ield         | OpenFOAM: The Open Source CFD Toolbox
   \\    /   O peration     | Website:  https://openfoam.org
    \\  /    A nd           | Version:  9
     \\/     M anipulation  |
\*---------------------------------------------------------------------------*/
FoamFile
{
    format      ascii;
    class       surfaceScalarField;
    location    "0.02";
    object      phi;
}
// * * * * * * * * * * * * * * * * * * * * * * * * * * * * * * * * * * * * * //

dimensions      [0 3 -1 0 0 0 0];

internalField   nonuniform List<scalar> 
2700
(
-2.2788e-07
-2.90206e-10
2.28171e-07
-4.77189e-07
1.6817e-09
2.47627e-07
-6.76499e-07
1.7613e-09
1.97549e-07
-8.04256e-07
1.16459e-09
1.26592e-07
-8.49786e-07
2.89536e-10
4.52409e-08
-8.09086e-07
-6.9961e-10
-4.00006e-08
-6.84329e-07
-1.65968e-09
-1.23097e-07
-4.84923e-07
-2.3912e-09
-1.97015e-07
-2.32378e-07
-2.41651e-09
-2.50128e-07
-4.30884e-10
-2.31947e-07
-2.70656e-07
-6.25054e-10
2.70991e-07
-5.66826e-07
4.19711e-10
2.97431e-07
-8.03045e-07
6.10533e-10
2.3737e-07
-9.5417e-07
4.13273e-10
1.51876e-07
-1.00781e-06
2.4557e-11
5.39087e-08
-9.59369e-07
-4.81776e-10
-4.86622e-08
-8.11476e-07
-9.43794e-10
-1.48608e-07
-5.75151e-07
-1.24543e-09
-2.37471e-07
-2.75475e-07
-1.13672e-09
-3.00957e-07
-1.59382e-10
-2.75746e-07
-2.73074e-07
-6.05516e-10
2.73054e-07
-5.72659e-07
-2.05261e-10
3.00211e-07
-8.11657e-07
3.1492e-12
2.39605e-07
-9.64535e-07
6.79086e-12
1.53285e-07
-1.01878e-06
-1.08538e-10
5.43797e-08
-9.69798e-07
-2.67811e-10
-4.91975e-08
-8.202e-07
-4.16345e-10
-1.50126e-07
-5.81094e-07
-4.80019e-10
-2.39871e-07
-2.77913e-07
-3.62325e-10
-3.03955e-07
-1.12944e-12
-2.78072e-07
-2.72929e-07
-3.628e-10
2.72686e-07
-5.72809e-07
-2.25822e-10
2.999e-07
-8.12077e-07
-1.12912e-10
2.39384e-07
-9.65142e-07
-7.3599e-11
1.53146e-07
-1.01948e-06
-8.65887e-11
5.43199e-08
-9.7046e-07
-1.19511e-10
-4.91714e-08
-8.20696e-07
-1.51037e-10
-1.5003e-07
-5.813e-07
-1.50228e-10
-2.39726e-07
-2.77802e-07
-8.82106e-11
-3.03772e-07
3.35778e-11
-2.77837e-07
-2.72817e-07
-1.83497e-11
2.72472e-07
-5.72722e-07
-1.03332e-11
2.9969e-07
-8.1205e-07
-6.09845e-12
2.39221e-07
-9.65164e-07
-4.47707e-12
1.53045e-07
-1.01953e-06
-3.32963e-12
5.4284e-08
-9.70504e-07
-2.15087e-12
-4.91449e-08
-8.20705e-07
-1.23231e-12
-1.49949e-07
-5.81251e-07
-6.10183e-13
-2.39603e-07
-2.77716e-07
-1.35627e-13
-3.03623e-07
1.15209e-12
-2.77684e-07
-2.72816e-07
3.2387e-10
2.72474e-07
-5.72721e-07
2.0558e-10
2.99689e-07
-8.12049e-07
1.00885e-10
2.39221e-07
-9.65163e-07
6.45308e-11
1.53045e-07
-1.01953e-06
7.99941e-11
5.42841e-08
-9.70503e-07
1.15331e-10
-4.91448e-08
-8.20704e-07
1.48485e-10
-1.49949e-07
-5.81251e-07
1.4882e-10
-2.39602e-07
-2.77717e-07
8.77365e-11
-3.03622e-07
-3.17127e-11
-2.77684e-07
-2.72928e-07
5.65588e-10
2.72686e-07
-5.72806e-07
1.88612e-10
2.99895e-07
-8.12075e-07
-9.72982e-12
2.39379e-07
-9.6514e-07
-1.22837e-11
1.53143e-07
-1.01948e-06
1.01993e-10
5.43187e-08
-9.70458e-07
2.63473e-10
-4.91713e-08
-8.20694e-07
4.13539e-10
-1.50029e-07
-5.81299e-07
4.78122e-10
-2.39724e-07
-2.77803e-07
3.61374e-10
-3.0377e-07
1.75956e-12
-2.77836e-07
-2.73079e-07
5.96576e-10
2.73048e-07
-5.72662e-07
-4.24822e-10
3.00196e-07
-8.11654e-07
-6.15817e-10
2.39598e-07
-9.64529e-07
-4.18038e-10
1.53281e-07
-1.01878e-06
-2.80706e-11
5.43773e-08
-9.69793e-07
4.78196e-10
-4.91979e-08
-8.20196e-07
9.41144e-10
-1.50124e-07
-5.81092e-07
1.24304e-09
-2.39869e-07
-2.77914e-07
1.13473e-09
-3.03952e-07
1.58792e-10
-2.78071e-07
-2.70668e-07
2.91263e-10
2.70973e-07
-5.66828e-07
-1.66605e-09
2.97401e-07
-8.0304e-07
-1.76041e-09
2.37356e-07
-9.54161e-07
-1.16685e-09
1.5187e-07
-1.0078e-06
-2.9189e-10
5.39067e-08
-9.59361e-07
6.97668e-10
-4.86623e-08
-8.11471e-07
1.65769e-09
-1.48607e-07
-5.75149e-07
2.38872e-09
-2.37468e-07
-2.75475e-07
2.41395e-09
-3.00953e-07
4.29642e-10
-2.75745e-07
-2.2788e-07
2.28171e-07
-4.7716e-07
2.47613e-07
-6.76468e-07
1.97548e-07
-8.0423e-07
1.26595e-07
-8.49766e-07
4.5244e-08
-8.09071e-07
-3.99975e-08
-6.84319e-07
-1.23094e-07
-4.84918e-07
-1.97013e-07
-2.32378e-07
-2.50126e-07
-2.31948e-07
-2.9764e-07
-2.83221e-09
5.28642e-07
-6.16544e-07
-4.58911e-10
5.6699e-07
-8.69211e-07
7.47318e-11
4.50141e-07
-1.03015e-06
7.23471e-11
2.8746e-07
-1.08751e-06
-1.25592e-10
1.02723e-07
-1.03686e-06
-4.3211e-10
-9.02145e-08
-8.80208e-07
-7.49509e-10
-2.79e-07
-6.27594e-07
-9.38128e-10
-4.48691e-07
-3.04192e-07
-5.35794e-10
-5.72994e-07
1.84593e-09
-5.37985e-07
-3.57595e-07
-1.99405e-09
6.27748e-07
-7.40305e-07
-8.57351e-10
6.8054e-07
-1.04294e-06
-3.31607e-10
5.4041e-07
-1.23534e-06
-1.9021e-10
3.44538e-07
-1.30358e-06
-2.36548e-10
1.22258e-07
-1.24258e-06
-3.55354e-10
-1.09736e-07
-1.05482e-06
-4.80492e-10
-3.36633e-07
-7.52259e-07
-4.92591e-10
-5.40481e-07
-3.64626e-07
-1.51593e-10
-6.88974e-07
1.01661e-09
-6.39542e-07
-3.61133e-07
-1.23676e-09
6.3343e-07
-7.48611e-07
-8.05384e-10
6.87636e-07
-1.05499e-06
-4.61282e-10
5.46119e-07
-1.24975e-06
-2.86281e-10
3.48135e-07
-1.31883e-06
-2.22655e-10
1.23443e-07
-1.25709e-06
-2.16876e-10
-1.11072e-07
-1.06703e-06
-2.17688e-10
-3.40448e-07
-7.60698e-07
-1.55522e-10
-5.46542e-07
-3.68255e-07
7.05893e-11
-6.9662e-07
4.96438e-10
-6.45806e-07
-3.6097e-07
-6.16609e-10
6.33036e-07
-7.48774e-07
-4.64728e-10
6.87363e-07
-1.05549e-06
-2.96426e-10
5.45934e-07
-1.25047e-06
-1.88654e-10
3.48029e-07
-1.31965e-06
-1.29615e-10
1.23404e-07
-1.25787e-06
-9.77989e-11
-1.11063e-07
-1.06763e-06
-7.24416e-11
-3.4042e-07
-7.60961e-07
-2.53873e-11
-5.46525e-07
-3.68142e-07
8.50526e-11
-6.96605e-07
2.21187e-10
-6.45704e-07
-3.60827e-07
-9.3614e-12
6.32692e-07
-7.4864e-07
4.78576e-12
6.87033e-07
-1.05541e-06
6.44911e-12
5.45688e-07
-1.25044e-06
4.67788e-12
3.47882e-07
-1.31965e-06
2.80952e-12
1.23359e-07
-1.25788e-06
1.39028e-12
-1.11015e-07
-1.0676e-06
2.60252e-13
-3.40295e-07
-7.60883e-07
-6.39909e-13
-5.46347e-07
-3.68029e-07
-1.04152e-12
-6.9639e-07
1.13972e-13
-6.45492e-07
-3.60827e-07
5.98427e-10
6.32693e-07
-7.48642e-07
4.77182e-10
6.87031e-07
-1.05541e-06
3.11448e-10
5.45686e-07
-1.25044e-06
1.99019e-10
3.47881e-07
-1.31965e-06
1.35483e-10
1.23358e-07
-1.25788e-06
1.00395e-10
-1.11015e-07
-1.0676e-06
7.27385e-11
-3.40295e-07
-7.60884e-07
2.40295e-11
-5.46346e-07
-3.6803e-07
-8.74412e-11
-6.9639e-07
-2.21043e-10
-6.45492e-07
-3.60976e-07
1.2233e-09
6.33037e-07
-7.48782e-07
8.23778e-10
6.87354e-07
-1.0555e-06
4.78965e-10
5.45927e-07
-1.25048e-06
2.96963e-10
3.48025e-07
-1.31965e-06
2.28028e-10
1.23402e-07
-1.25788e-06
2.18694e-10
-1.11064e-07
-1.06763e-06
2.17588e-10
-3.40419e-07
-7.60963e-07
1.53821e-10
-5.46524e-07
-3.68144e-07
-7.29665e-11
-6.96604e-07
-4.96632e-10
-6.45705e-07
-3.61149e-07
1.9931e-09
6.33427e-07
-7.48631e-07
8.84825e-10
6.87617e-07
-1.05501e-06
3.50764e-10
5.46105e-07
-1.24976e-06
1.99898e-10
3.48128e-07
-1.31883e-06
2.40303e-10
1.23439e-07
-1.2571e-06
3.5613e-10
-1.11073e-07
-1.06703e-06
4.79415e-10
-3.40447e-07
-7.607e-07
4.90063e-10
-5.46539e-07
-3.68257e-07
1.49173e-10
-6.96617e-07
-1.01762e-09
-6.45807e-07
-3.57626e-07
2.85001e-09
6.27742e-07
-7.40337e-07
4.87306e-10
6.8051e-07
-1.04296e-06
-6.12169e-11
5.4039e-07
-1.23535e-06
-6.73197e-11
3.44528e-07
-1.30358e-06
1.26794e-10
1.22253e-07
-1.24258e-06
4.31176e-10
-1.09737e-07
-1.05483e-06
7.47392e-10
-3.36631e-07
-7.52261e-07
9.35022e-10
-5.40478e-07
-3.64627e-07
5.33103e-10
-6.88971e-07
-1.84695e-09
-6.39544e-07
-2.97649e-07
5.2867e-07
-6.16542e-07
5.66994e-07
-8.692e-07
4.50146e-07
-1.03014e-06
2.87466e-07
-1.0875e-06
1.02729e-07
-1.03685e-06
-9.02096e-08
-8.80203e-07
-2.78997e-07
-6.27592e-07
-4.48689e-07
-3.04192e-07
-5.72993e-07
-5.37987e-07
-3.6162e-07
-4.42722e-09
8.9469e-07
-7.419e-07
-1.66531e-09
9.48935e-07
-1.0366e-06
-8.4864e-10
7.45691e-07
-1.22153e-06
-5.57647e-10
4.72951e-07
-1.28783e-06
-4.21613e-10
1.6944e-07
-1.23206e-06
-3.82406e-10
-1.456e-07
-1.05418e-06
-4.07198e-10
-4.56477e-07
-7.601e-07
-3.87622e-10
-7.42381e-07
-3.72842e-07
1.55251e-10
-9.60407e-07
2.91213e-09
-9.1374e-07
-4.34823e-07
-3.23337e-09
1.06138e-06
-8.91642e-07
-1.94981e-09
1.13764e-06
-1.24502e-06
-1.17715e-09
8.94117e-07
-1.46635e-06
-7.35099e-10
5.66045e-07
-1.54526e-06
-4.50073e-10
2.01201e-07
-1.47789e-06
-2.63051e-10
-1.77234e-07
-1.2643e-06
-1.41158e-10
-5.50484e-07
-9.11598e-07
4.0755e-12
-8.93576e-07
-4.47098e-07
5.46385e-10
-1.15387e-06
1.81252e-09
-1.08554e-06
-4.39081e-07
-2.00306e-09
1.07128e-06
-9.01576e-07
-1.52756e-09
1.14971e-06
-1.25934e-06
-1.00926e-09
9.0371e-07
-1.48338e-06
-6.25738e-10
5.72066e-07
-1.56326e-06
-3.43407e-10
2.03218e-07
-1.49507e-06
-1.33264e-10
-1.7939e-07
-1.27888e-06
3.34295e-11
-5.56808e-07
-9.21854e-07
2.27676e-10
-9.03795e-07
-4.5157e-07
5.53745e-10
-1.16691e-06
9.86304e-10
-1.09655e-06
-4.38844e-07
-9.74433e-10
1.07085e-06
-9.01666e-07
-8.13515e-10
1.14947e-06
-1.25977e-06
-5.61076e-10
9.03588e-07
-1.48405e-06
-3.48889e-10
5.72034e-07
-1.56405e-06
-1.81187e-10
2.03244e-07
-1.49585e-06
-5.0188e-11
-1.79346e-07
-1.27951e-06
5.88772e-11
-5.56791e-07
-9.2213e-07
1.74397e-10
-9.03847e-07
-4.51448e-07
3.24039e-10
-1.16706e-06
4.52438e-10
-1.09662e-06
-4.38647e-07
-5.51814e-12
1.07037e-06
-9.01449e-07
5.9829e-12
1.14902e-06
-1.25959e-06
6.97496e-12
9.03262e-07
-1.48392e-06
5.05269e-12
5.71857e-07
-1.56396e-06
3.10238e-12
2.03214e-07
-1.49578e-06
1.60473e-12
-1.79249e-07
-1.27942e-06
5.25403e-13
-5.56591e-07
-9.22013e-07
-3.18117e-13
-9.03582e-07
-4.51314e-07
-6.44617e-13
-1.16676e-06
-2.39801e-13
-1.09635e-06
-4.38648e-07
9.64214e-10
1.07037e-06
-9.01451e-07
8.2683e-10
1.14901e-06
-1.25959e-06
5.75768e-10
9.03259e-07
-1.48392e-06
3.59162e-10
5.71856e-07
-1.56396e-06
1.87143e-10
2.03213e-07
-1.49578e-06
5.28519e-11
-1.79249e-07
-1.27942e-06
-5.81271e-11
-5.56591e-07
-9.22014e-07
-1.75249e-10
-9.03582e-07
-4.51314e-07
-3.25357e-10
-1.16676e-06
-4.52899e-10
-1.09635e-06
-4.38848e-07
1.9952e-09
1.07085e-06
-9.01673e-07
1.54346e-09
1.14946e-06
-1.25977e-06
1.02431e-09
9.03581e-07
-1.48405e-06
6.34926e-10
5.72029e-07
-1.56406e-06
3.47843e-10
2.03241e-07
-1.49585e-06
1.34722e-10
-1.79347e-07
-1.27951e-06
-3.34995e-11
-5.5679e-07
-9.22131e-07
-2.29054e-10
-9.03846e-07
-4.51449e-07
-5.55151e-10
-1.16706e-06
-9.86799e-10
-1.09662e-06
-4.3909e-07
3.22941e-09
1.07128e-06
-9.0159e-07
1.96668e-09
1.14969e-06
-1.25935e-06
1.18992e-09
9.03697e-07
-1.48339e-06
7.4116e-10
5.72058e-07
-1.56326e-06
4.51614e-10
2.03213e-07
-1.49507e-06
2.61852e-10
-1.79391e-07
-1.27889e-06
1.39407e-10
-5.56806e-07
-9.21855e-07
-6.47958e-12
-9.03792e-07
-4.5157e-07
-5.48327e-10
-1.16691e-06
-1.81297e-09
-1.09655e-06
-4.34838e-07
4.42879e-09
1.06138e-06
-8.91662e-07
1.67633e-09
1.13762e-06
-1.24504e-06
8.54044e-10
8.941e-07
-1.46636e-06
5.58246e-10
5.66036e-07
-1.54527e-06
4.191e-10
2.01196e-07
-1.47789e-06
3.78505e-10
-1.77235e-07
-1.2643e-06
4.03659e-10
-5.50482e-07
-9.11599e-07
3.84646e-10
-8.93573e-07
-4.47098e-07
-1.56321e-10
-1.15386e-06
-2.91207e-09
-1.08554e-06
-3.61619e-07
8.94718e-07
-7.41895e-07
9.48946e-07
-1.03659e-06
7.45698e-07
-1.22153e-06
4.72958e-07
-1.28782e-06
1.69445e-07
-1.23206e-06
-1.45597e-07
-1.05418e-06
-4.56476e-07
-7.60099e-07
-7.4238e-07
-3.72841e-07
-9.60407e-07
-9.13741e-07
-4.7162e-07
-6.3404e-09
1.37265e-06
-9.48499e-07
-3.05336e-09
1.42887e-06
-1.30398e-06
-1.9303e-09
1.1031e-06
-1.5213e-06
-1.28566e-09
6.91559e-07
-1.59983e-06
-7.62872e-10
2.48726e-07
-1.53894e-06
-3.57539e-10
-2.06132e-07
-1.33416e-06
-6.09776e-11
-6.61188e-07
-9.8108e-07
9.25179e-11
-1.09556e-06
-4.93106e-07
6.51775e-10
-1.44903e-06
3.81784e-09
-1.41066e-06
-5.66688e-07
-4.82194e-09
1.62655e-06
-1.13954e-06
-3.32785e-09
1.71077e-06
-1.56597e-06
-2.19954e-09
1.32081e-06
-1.82615e-06
-1.35717e-09
8.26304e-07
-1.91957e-06
-6.65596e-10
2.94526e-07
-1.84575e-06
-1.29926e-10
-2.51291e-07
-1.59955e-06
3.03687e-10
-7.97047e-07
-1.17586e-06
6.7435e-10
-1.31784e-06
-5.90694e-07
1.27003e-09
-1.73965e-06
2.59773e-09
-1.67501e-06
-5.72171e-07
-3.04439e-09
1.64167e-06
-1.15204e-06
-2.4966e-09
1.72874e-06
-1.58371e-06
-1.71667e-09
1.3349e-06
-1.84708e-06
-1.03138e-09
8.35107e-07
-1.94165e-06
-4.49824e-10
2.97577e-07
-1.86698e-06
2.0121e-11
-2.5421e-07
-1.61786e-06
4.13814e-10
-8.06037e-07
-1.18903e-06
7.55493e-10
-1.33271e-06
-5.96666e-07
1.1476e-09
-1.75915e-06
1.54624e-09
-1.69216e-06
-5.71837e-07
-1.48052e-09
1.64113e-06
-1.15202e-06
-1.2981e-09
1.72846e-06
-1.58405e-06
-9.13891e-10
1.33482e-06
-1.84769e-06
-5.45015e-10
8.35186e-07
-1.94243e-06
-2.22273e-10
2.97753e-07
-1.86779e-06
4.46207e-11
-2.54009e-07
-1.61855e-06
2.69254e-10
-8.05888e-07
-1.1894e-06
4.60447e-10
-1.3327e-06
-5.96599e-07
6.43707e-10
-1.75936e-06
7.41971e-10
-1.69241e-06
-5.71562e-07
-4.07854e-12
1.64046e-06
-1.15168e-06
3.83003e-12
1.72783e-06
-1.58373e-06
4.47602e-12
1.33439e-06
-1.84742e-06
3.1403e-12
8.34999e-07
-1.94221e-06
1.69327e-12
2.97782e-07
-1.86762e-06
7.76962e-13
-2.538e-07
-1.6184e-06
3.43341e-13
-8.05539e-07
-1.18926e-06
3.68995e-15
-1.33227e-06
-5.9646e-07
-1.5986e-13
-1.75892e-06
-5.41662e-13
-1.69207e-06
-5.71562e-07
1.47249e-09
1.64046e-06
-1.15168e-06
1.30623e-09
1.72783e-06
-1.58373e-06
9.22941e-10
1.33439e-06
-1.84742e-06
5.51114e-10
8.34998e-07
-1.94221e-06
2.25192e-10
2.97781e-07
-1.86762e-06
-4.34884e-11
-2.538e-07
-1.6184e-06
-2.68732e-10
-8.05539e-07
-1.18926e-06
-4.60495e-10
-1.33227e-06
-5.96459e-07
-6.43966e-10
-1.75892e-06
-7.43027e-10
-1.69207e-06
-5.71838e-07
3.03739e-09
1.64113e-06
-1.15203e-06
2.50512e-09
1.72845e-06
-1.58406e-06
1.72505e-09
1.33481e-06
-1.8477e-06
1.03609e-09
8.35182e-07
-1.94243e-06
4.51238e-10
2.97751e-07
-1.86779e-06
-2.04167e-11
-2.5401e-07
-1.61855e-06
-4.14004e-10
-8.05887e-07
-1.1894e-06
-7.56012e-10
-1.3327e-06
-5.96599e-07
-1.14812e-09
-1.75936e-06
-1.54701e-09
-1.69241e-06
-5.72175e-07
4.81725e-09
1.64168e-06
-1.15205e-06
3.33539e-09
1.72873e-06
-1.58372e-06
2.2054e-09
1.33489e-06
-1.84708e-06
1.35917e-09
8.351e-07
-1.94166e-06
6.64595e-10
2.97574e-07
-1.86698e-06
1.2717e-10
-2.54211e-07
-1.61786e-06
-3.05494e-10
-8.06036e-07
-1.18903e-06
-6.75678e-10
-1.3327e-06
-5.96664e-07
-1.27089e-09
-1.75915e-06
-2.59785e-09
-1.69216e-06
-5.66693e-07
6.33748e-09
1.62655e-06
-1.13955e-06
3.05669e-09
1.71076e-06
-1.56597e-06
1.93114e-09
1.3208e-06
-1.82616e-06
1.28348e-09
8.26296e-07
-1.91958e-06
7.5845e-10
2.94522e-07
-1.84575e-06
3.52467e-10
-2.51292e-07
-1.59955e-06
5.86594e-11
-7.97046e-07
-1.17586e-06
-9.3241e-11
-1.31784e-06
-5.90692e-07
-6.52384e-10
-1.73965e-06
-3.81761e-09
-1.67501e-06
-4.71617e-07
1.37267e-06
-9.48494e-07
1.42888e-06
-1.30397e-06
1.10311e-06
-1.5213e-06
6.91564e-07
-1.59982e-06
2.48728e-07
-1.53893e-06
-2.06131e-07
-1.33416e-06
-6.61188e-07
-9.81079e-07
-1.09556e-06
-4.93105e-07
-1.44903e-06
-1.41066e-06
-6.59347e-07
-9.24478e-09
2.04124e-06
-1.27611e-06
-5.3201e-09
2.05095e-06
-1.70733e-06
-3.60399e-09
1.53792e-06
-1.95976e-06
-2.29883e-09
9.46288e-07
-2.05175e-06
-1.13311e-09
3.4185e-07
-1.98934e-06
-1.1592e-10
-2.68419e-07
-1.75962e-06
5.31197e-10
-8.91438e-07
-1.33583e-06
9.46528e-10
-1.5203e-06
-7.02893e-07
1.58103e-09
-2.08355e-06
4.77486e-09
-2.11833e-06
-7.90947e-07
-7.15491e-09
2.4154e-06
-1.53189e-06
-5.39699e-09
2.45178e-06
-2.04954e-06
-3.64359e-09
1.8385e-06
-2.35196e-06
-2.12131e-09
1.12855e-06
-2.46135e-06
-8.09537e-10
4.03585e-07
-2.38517e-06
2.67692e-10
-3.27855e-07
-2.10848e-06
1.1327e-09
-1.07434e-06
-1.59954e-06
1.76735e-09
-1.8276e-06
-8.40657e-07
2.41992e-09
-2.49937e-06
3.52532e-09
-2.51442e-06
-7.9853e-07
-4.53061e-09
2.43758e-06
-1.54835e-06
-3.8805e-09
2.47705e-06
-2.07234e-06
-2.66496e-09
1.85791e-06
-2.37851e-06
-1.49558e-09
1.14065e-06
-2.4893e-06
-4.66253e-10
4.08025e-07
-2.41233e-06
3.91649e-10
-3.31298e-07
-2.13242e-06
1.0882e-09
-1.08591e-06
-1.61743e-06
1.62215e-09
-1.84755e-06
-8.49458e-07
2.05656e-09
-2.52676e-06
2.26139e-09
-2.54036e-06
-7.98072e-07
-2.19142e-09
2.43686e-06
-1.54816e-06
-1.97328e-09
2.47663e-06
-2.07253e-06
-1.37512e-09
1.8579e-06
-2.37903e-06
-7.61435e-10
1.14095e-06
-2.49005e-06
-2.09913e-10
4.08518e-07
-2.41319e-06
2.55393e-10
-3.30728e-07
-2.13324e-06
6.33647e-10
-1.08538e-06
-1.61801e-06
9.2156e-10
-1.84723e-06
-8.49624e-07
1.12564e-09
-2.52682e-06
1.12453e-09
-2.5409e-06
-7.97684e-07
-2.90247e-12
2.43595e-06
-1.54761e-06
2.50574e-12
2.47578e-06
-2.07198e-06
2.95248e-12
1.85739e-06
-2.37855e-06
2.06513e-12
1.1408e-06
-2.48965e-06
9.56797e-13
4.08679e-07
-2.41289e-06
6.59583e-13
-3.30313e-07
-2.13302e-06
8.61703e-13
-1.08478e-06
-1.61785e-06
6.10923e-13
-1.84651e-06
-8.49529e-07
2.99235e-13
-2.52612e-06
-7.22647e-13
-2.54047e-06
-7.97684e-07
2.18553e-09
2.43595e-06
-1.54761e-06
1.97835e-09
2.47578e-06
-2.07198e-06
1.38093e-09
1.85738e-06
-2.37855e-06
7.65485e-10
1.1408e-06
-2.48966e-06
2.1153e-10
4.08679e-07
-2.41289e-06
-2.54226e-10
-3.30313e-07
-2.13302e-06
-6.31861e-10
-1.08478e-06
-1.61785e-06
-9.20278e-10
-1.84651e-06
-8.49528e-07
-1.1251e-09
-2.52612e-06
-1.12604e-09
-2.54047e-06
-7.98073e-07
4.52541e-09
2.43686e-06
-1.54816e-06
3.88549e-09
2.47663e-06
-2.07253e-06
2.67014e-09
1.85789e-06
-2.37903e-06
1.49871e-09
1.14095e-06
-2.49005e-06
4.67102e-10
4.08516e-07
-2.4132e-06
-3.91141e-10
-3.30729e-07
-2.13324e-06
-1.08641e-09
-1.08538e-06
-1.61801e-06
-1.62098e-09
-1.84723e-06
-8.49623e-07
-2.05653e-09
-2.52682e-06
-2.2624e-09
-2.5409e-06
-7.98532e-07
7.15102e-09
2.43758e-06
-1.54835e-06
5.40093e-09
2.47704e-06
-2.07235e-06
3.64698e-09
1.8579e-06
-2.37851e-06
2.12265e-09
1.14064e-06
-2.4893e-06
8.08508e-10
4.08022e-07
-2.41233e-06
-2.69064e-10
-3.31299e-07
-2.13242e-06
-1.13108e-09
-1.08591e-06
-1.61742e-06
-1.76625e-09
-1.84755e-06
-8.49456e-07
-2.42044e-09
-2.52676e-06
-3.52551e-09
-2.54036e-06
-7.90948e-07
9.243e-09
2.41541e-06
-1.53189e-06
5.3218e-09
2.45178e-06
-2.04954e-06
3.60404e-09
1.8385e-06
-2.35197e-06
2.29691e-09
1.12855e-06
-2.46135e-06
1.13011e-09
4.03583e-07
-2.38517e-06
1.13058e-10
-3.27856e-07
-2.10848e-06
-5.29634e-10
-1.07434e-06
-1.59954e-06
-9.45066e-10
-1.8276e-06
-8.40656e-07
-1.58185e-09
-2.49937e-06
-4.7755e-09
-2.51442e-06
-6.59344e-07
2.04126e-06
-1.2761e-06
2.05096e-06
-1.70732e-06
1.53793e-06
-1.95975e-06
9.46292e-07
-2.05175e-06
3.41852e-07
-1.98934e-06
-2.68419e-07
-1.75962e-06
-8.91438e-07
-1.33583e-06
-1.5203e-06
-7.02892e-07
-2.08355e-06
-2.11833e-06
-9.88538e-07
-1.40131e-08
3.04379e-06
-1.78728e-06
-9.40366e-09
2.85909e-06
-2.28924e-06
-6.21184e-09
2.04609e-06
-2.56194e-06
-3.53955e-09
1.22252e-06
-2.66232e-06
-1.26243e-09
4.43493e-07
-2.6099e-06
6.01842e-10
-3.21441e-07
-2.37819e-06
2.13474e-09
-1.12528e-06
-1.89704e-06
3.09919e-09
-2.00454e-06
-1.07983e-06
3.89146e-09
-2.90466e-06
5.56805e-09
-3.20372e-06
-1.18259e-06
-1.07002e-08
3.59468e-06
-2.14274e-06
-8.64808e-09
3.41118e-06
-2.74641e-06
-5.63608e-09
2.44159e-06
-3.07374e-06
-2.91976e-09
1.45526e-06
-3.19304e-06
-6.41138e-10
5.22269e-07
-3.12815e-06
1.28551e-09
-3.9343e-07
-2.84786e-06
2.83503e-09
-1.35533e-06
-2.26905e-06
3.9368e-09
-2.40725e-06
-1.28906e-06
4.67622e-09
-3.48015e-06
4.58103e-09
-3.80249e-06
-1.19387e-06
-6.65559e-09
3.6274e-06
-2.16511e-06
-5.88329e-09
3.44552e-06
-2.77626e-06
-3.89216e-09
2.46731e-06
-3.10784e-06
-1.9299e-09
1.47124e-06
-3.22886e-06
-2.35361e-10
5.28639e-07
-3.16335e-06
1.19348e-09
-3.96716e-07
-2.8799e-06
2.34047e-09
-1.36886e-06
-2.29445e-06
3.16368e-09
-2.43224e-06
-1.30335e-06
3.61764e-09
-3.5168e-06
3.1667e-09
-3.84229e-06
-1.19328e-06
-3.17172e-09
3.62665e-06
-2.16457e-06
-2.90573e-09
3.44495e-06
-2.77613e-06
-1.95149e-09
2.46752e-06
-3.10818e-06
-9.54481e-10
1.47202e-06
-3.22954e-06
-7.18121e-11
5.29716e-07
-3.16426e-06
6.7617e-10
-3.95488e-07
-2.88094e-06
1.27211e-09
-1.36764e-06
-2.29546e-06
1.69291e-09
-2.43124e-06
-1.30416e-06
1.89693e-09
-3.51639e-06
1.61823e-09
-3.84352e-06
-1.19273e-06
-2.11109e-12
3.62551e-06
-2.1637e-06
1.28281e-12
3.44384e-06
-2.77523e-06
1.21549e-12
2.46697e-06
-3.10739e-06
9.22622e-13
1.472e-06
-3.22889e-06
5.78417e-13
5.3011e-07
-3.16376e-06
9.74098e-13
-3.94764e-07
-2.88061e-06
1.49571e-12
-1.36666e-06
-2.29532e-06
8.21473e-13
-2.43011e-06
-1.30423e-06
1.00666e-13
-3.5153e-06
-9.83272e-13
-3.84309e-06
-1.19273e-06
3.1675e-09
3.62551e-06
-2.1637e-06
2.90806e-09
3.44384e-06
-2.77523e-06
1.95391e-09
2.46697e-06
-3.10739e-06
9.56263e-10
1.472e-06
-3.22889e-06
7.26827e-11
5.3011e-07
-3.16376e-06
-6.74395e-10
-3.94764e-07
-2.88061e-06
-1.26901e-09
-1.36666e-06
-2.29532e-06
-1.69119e-09
-2.43011e-06
-1.30423e-06
-1.89693e-09
-3.5153e-06
-1.62024e-09
-3.84309e-06
-1.19328e-06
6.65204e-09
3.62665e-06
-2.16457e-06
5.88487e-09
3.44495e-06
-2.77613e-06
3.89348e-09
2.46752e-06
-3.10818e-06
1.93048e-09
1.47202e-06
-3.22954e-06
2.355e-10
5.29715e-07
-3.16426e-06
-1.19247e-09
-3.95489e-07
-2.88094e-06
-2.33755e-09
-1.36764e-06
-2.29546e-06
-3.16243e-09
-2.43124e-06
-1.30416e-06
-3.61852e-09
-3.51639e-06
-3.16772e-09
-3.84351e-06
-1.19387e-06
1.0697e-08
3.62741e-06
-2.16511e-06
8.64868e-09
3.44552e-06
-2.77626e-06
5.63545e-09
2.46731e-06
-3.10784e-06
2.91826e-09
1.47124e-06
-3.22886e-06
6.39408e-10
5.28638e-07
-3.16335e-06
-1.28611e-09
-3.96717e-07
-2.8799e-06
-2.83256e-09
-1.36886e-06
-2.29445e-06
-3.9358e-09
-2.43223e-06
-1.30334e-06
-4.678e-09
-3.5168e-06
-4.58117e-09
-3.84229e-06
-1.18259e-06
1.4012e-08
3.59469e-06
-2.14275e-06
9.40219e-09
3.41118e-06
-2.74641e-06
6.20768e-09
2.44159e-06
-3.07374e-06
3.53517e-09
1.45526e-06
-3.19304e-06
1.25915e-09
5.22268e-07
-3.12815e-06
-6.03017e-10
-3.93431e-07
-2.84786e-06
-2.1321e-09
-1.35533e-06
-2.26905e-06
-3.09766e-09
-2.40725e-06
-1.28906e-06
-3.89345e-09
-3.48015e-06
-5.56963e-09
-3.80249e-06
-9.88536e-07
3.04381e-06
-1.78728e-06
2.8591e-06
-2.28924e-06
2.0461e-06
-2.56193e-06
1.22253e-06
-2.66232e-06
4.43494e-07
-2.6099e-06
-3.21442e-07
-2.37819e-06
-1.12528e-06
-1.89704e-06
-2.00454e-06
-1.07983e-06
-2.90466e-06
-3.20373e-06
-1.60483e-06
-2.11319e-08
4.66975e-06
-2.59111e-06
-1.65357e-08
3.86191e-06
-3.10069e-06
-9.48174e-09
2.56516e-06
-3.33906e-06
-4.21338e-09
1.4651e-06
-3.4287e-06
-2.72632e-10
5.3341e-07
-3.41077e-06
2.93823e-09
-3.42308e-07
-3.24254e-06
5.76018e-09
-1.29928e-06
-2.7858e-06
7.95226e-09
-2.46924e-06
-1.79428e-06
9.78293e-09
-3.90596e-06
4.76835e-09
-5.00278e-06
-1.9113e-06
-1.56347e-08
5.50048e-06
-3.1003e-06
-1.36165e-08
4.59727e-06
-3.71629e-06
-7.98635e-09
3.05609e-06
-4.00407e-06
-3.2359e-09
1.74206e-06
-4.11055e-06
3.95977e-10
6.2808e-07
-4.0858e-06
3.57348e-09
-4.18811e-07
-3.87937e-06
6.16615e-09
-1.56216e-06
-3.32712e-06
8.14799e-09
-2.9597e-06
-2.13583e-06
9.28696e-09
-4.67095e-06
5.3027e-09
-5.93885e-06
-1.92934e-06
-9.46049e-09
5.55057e-06
-3.13132e-06
-8.68589e-09
4.64257e-06
-3.75551e-06
-5.29101e-09
3.08881e-06
-4.04766e-06
-2.08371e-09
1.76224e-06
-4.15603e-06
5.40775e-10
6.36856e-07
-4.13112e-06
2.74075e-09
-4.20792e-07
-3.92243e-06
4.53032e-09
-1.57591e-06
-3.36423e-06
5.83141e-09
-2.98812e-06
-2.16096e-06
6.35638e-09
-4.71714e-06
4.08974e-09
-6.00204e-06
-1.92869e-06
-4.42425e-09
5.5503e-06
-3.13012e-06
-4.14487e-09
4.64184e-06
-3.75482e-06
-2.59805e-09
3.08953e-06
-4.04768e-06
-1.02821e-09
1.76383e-06
-4.15654e-06
3.08784e-10
6.38807e-07
-4.13202e-06
1.42235e-09
-4.18686e-07
-3.9237e-06
2.3109e-09
-1.57374e-06
-3.36594e-06
2.92456e-09
-2.9861e-06
-2.16333e-06
3.11456e-09
-4.71575e-06
2.15441e-09
-6.00491e-06
-1.92795e-06
-1.69374e-12
5.54904e-06
-3.12873e-06
1.63594e-13
4.64048e-06
-3.7534e-06
-6.17957e-14
3.08904e-06
-4.04647e-06
4.15493e-13
1.76404e-06
-4.15556e-06
7.58191e-13
6.39506e-07
-4.13127e-06
1.20487e-12
-4.17627e-07
-3.92324e-06
1.46732e-12
-1.57238e-06
-3.36588e-06
5.8396e-13
-2.98454e-06
-2.16384e-06
1.08601e-13
-4.71423e-06
-8.98669e-13
-6.00477e-06
-1.92795e-06
4.42094e-09
5.54904e-06
-3.12873e-06
4.14426e-09
4.64048e-06
-3.7534e-06
2.59754e-09
3.08903e-06
-4.04647e-06
1.0286e-09
1.76404e-06
-4.15556e-06
-3.07242e-10
6.39506e-07
-4.13127e-06
-1.42043e-09
-4.17627e-07
-3.92324e-06
-2.30797e-09
-1.57238e-06
-3.36588e-06
-2.92345e-09
-2.98454e-06
-2.16384e-06
-3.11437e-09
-4.71423e-06
-2.15612e-09
-6.00477e-06
-1.92869e-06
9.45703e-09
5.5503e-06
-3.13011e-06
8.6837e-09
4.64183e-06
-3.75482e-06
5.28875e-09
3.08953e-06
-4.04768e-06
2.08314e-09
1.76383e-06
-4.15654e-06
-5.40432e-10
6.38808e-07
-4.13202e-06
-2.73964e-09
-4.18686e-07
-3.9237e-06
-4.52823e-09
-1.57374e-06
-3.36594e-06
-5.831e-09
-2.9861e-06
-2.16333e-06
-6.35675e-09
-4.71575e-06
-4.09005e-09
-6.00491e-06
-1.92934e-06
1.56304e-08
5.55057e-06
-3.13131e-06
1.36125e-08
4.64257e-06
-3.75551e-06
7.98183e-09
3.08881e-06
-4.04766e-06
3.23376e-09
1.76224e-06
-4.15603e-06
-3.96936e-10
6.36857e-07
-4.13112e-06
-3.57366e-09
-4.20792e-07
-3.92243e-06
-6.16451e-09
-1.57591e-06
-3.36423e-06
-8.14759e-09
-2.98812e-06
-2.16096e-06
-9.28683e-09
-4.71714e-06
-5.30145e-09
-6.00203e-06
-1.9113e-06
2.11292e-08
5.50048e-06
-3.1003e-06
1.65304e-08
4.59726e-06
-3.71629e-06
9.47494e-09
3.05608e-06
-4.00407e-06
4.20979e-09
1.74206e-06
-4.11055e-06
2.7172e-10
6.28081e-07
-4.0858e-06
-2.9386e-09
-4.18812e-07
-3.87937e-06
-5.75863e-09
-1.56216e-06
-3.32712e-06
-7.95179e-09
-2.9597e-06
-2.13583e-06
-9.78342e-09
-4.67095e-06
-4.76861e-09
-5.93885e-06
-1.60483e-06
4.66976e-06
-2.5911e-06
3.86191e-06
-3.10069e-06
2.56516e-06
-3.33906e-06
1.4651e-06
-3.4287e-06
5.3341e-07
-3.41078e-06
-3.42309e-07
-3.24254e-06
-1.29928e-06
-2.7858e-06
-2.46924e-06
-1.79428e-06
-3.90596e-06
-5.00278e-06
-2.7885e-06
-2.6277e-08
7.48453e-06
-3.77208e-06
-2.6923e-08
4.87242e-06
-4.08e-06
-1.07109e-08
2.88379e-06
-4.15125e-06
-1.53377e-09
1.53789e-06
-4.1804e-06
4.01038e-09
5.58543e-07
-4.2314e-06
8.90635e-09
-3.00209e-07
-4.25058e-06
1.42487e-08
-1.29435e-06
-4.02759e-06
2.04087e-08
-2.71264e-06
-3.06943e-06
3.01202e-08
-4.89424e-06
7.26905e-09
-8.07947e-06
-3.29939e-06
-2.07358e-08
8.79433e-06
-4.49592e-06
-2.06924e-08
5.78757e-06
-4.87467e-06
-9.57765e-09
3.4337e-06
-4.96307e-06
-1.80629e-09
1.83073e-06
-4.99557e-06
3.57007e-09
6.61021e-07
-5.04966e-06
8.0567e-09
-3.63871e-07
-5.06168e-06
1.23412e-08
-1.54824e-06
-4.77996e-06
1.64951e-08
-3.2375e-06
-3.6148e-06
2.07528e-08
-5.82674e-06
6.98471e-09
-9.55337e-06
-3.33029e-06
-1.26354e-08
8.87276e-06
-4.53781e-06
-1.24623e-08
5.84186e-06
-4.92341e-06
-6.53362e-09
3.47136e-06
-5.01487e-06
-1.52639e-09
1.85342e-06
-5.04842e-06
2.23683e-09
6.71737e-07
-5.10288e-06
5.31263e-09
-3.63586e-07
-5.1147e-06
7.99273e-09
-1.55974e-06
-4.83e-06
1.02094e-08
-3.26654e-06
-3.65654e-06
1.14453e-08
-5.88129e-06
5.02345e-09
-9.65662e-06
-3.32999e-06
-5.8397e-09
8.87349e-06
-4.53524e-06
-5.72051e-09
5.84035e-06
-4.92165e-06
-3.21696e-09
3.47263e-06
-5.01426e-06
-8.55975e-10
1.85576e-06
-5.04851e-06
1.02208e-09
6.7427e-07
-5.10344e-06
2.54607e-09
-3.60992e-07
-5.11584e-06
3.79961e-09
-1.55714e-06
-4.83218e-06
4.71399e-09
-3.26426e-06
-3.66191e-06
4.99309e-09
-5.87957e-06
2.59118e-09
-9.66439e-06
-3.32909e-06
-8.52883e-13
8.8723e-06
-4.53305e-06
-1.89203e-13
5.83872e-06
-4.91951e-06
-5.35008e-13
3.47227e-06
-5.01254e-06
4.16537e-13
1.85622e-06
-5.04714e-06
9.42326e-13
6.75125e-07
-5.10236e-06
1.05546e-12
-3.59854e-07
-5.11517e-06
1.07921e-12
-1.55578e-06
-4.83219e-06
9.66606e-13
-3.26281e-06
-3.66329e-06
7.43639e-13
-5.87814e-06
-4.82467e-13
-9.66547e-06
-3.32909e-06
5.83811e-09
8.8723e-06
-4.53305e-06
5.71928e-09
5.83872e-06
-4.91951e-06
3.21571e-09
3.47227e-06
-5.01254e-06
8.56544e-10
1.85622e-06
-5.04714e-06
-1.02045e-09
6.75126e-07
-5.10236e-06
-2.54428e-09
-3.59854e-07
-5.11517e-06
-3.79748e-09
-1.55578e-06
-4.83219e-06
-4.712e-09
-3.26281e-06
-3.66329e-06
-4.99221e-09
-5.87814e-06
-2.59191e-09
-9.66547e-06
-3.32999e-06
1.26331e-08
8.8735e-06
-4.53524e-06
1.24607e-08
5.84035e-06
-4.92165e-06
6.53206e-09
3.47263e-06
-5.01426e-06
1.52736e-09
1.85576e-06
-5.04851e-06
-2.2354e-09
6.74271e-07
-5.10343e-06
-5.31187e-09
-3.60992e-07
-5.11584e-06
-7.99142e-09
-1.55714e-06
-4.83218e-06
-1.02079e-08
-3.26426e-06
-3.6619e-06
-1.14453e-08
-5.87957e-06
-5.02287e-09
-9.66439e-06
-3.33029e-06
2.07328e-08
8.87276e-06
-4.53781e-06
2.06898e-08
5.84186e-06
-4.9234e-06
9.57535e-09
3.47136e-06
-5.01487e-06
1.80768e-09
1.85342e-06
-5.04842e-06
-3.56861e-09
6.71739e-07
-5.10288e-06
-8.05672e-09
-3.63585e-07
-5.1147e-06
-1.23403e-08
-1.55974e-06
-4.83e-06
-1.6493e-08
-3.26653e-06
-3.65654e-06
-2.0752e-08
-5.88129e-06
-6.9838e-09
-9.65662e-06
-3.29939e-06
2.62749e-08
8.79433e-06
-4.49592e-06
2.69196e-08
5.78757e-06
-4.87467e-06
1.07085e-08
3.4337e-06
-4.96307e-06
1.53528e-09
1.83074e-06
-4.99557e-06
-4.00818e-09
6.61022e-07
-5.04966e-06
-8.90688e-09
-3.63872e-07
-5.06168e-06
-1.42484e-08
-1.54824e-06
-4.77996e-06
-2.04069e-08
-3.2375e-06
-3.61481e-06
-3.01184e-08
-5.82674e-06
-7.26945e-09
-9.55337e-06
-2.7885e-06
7.48454e-06
-3.77208e-06
4.87242e-06
-4.08e-06
2.88379e-06
-4.15125e-06
1.53789e-06
-4.1804e-06
5.58544e-07
-4.2314e-06
-3.00209e-07
-4.25058e-06
-1.29435e-06
-4.02758e-06
-2.71264e-06
-3.06943e-06
-4.89424e-06
-8.07947e-06
-3.74664e-06
-8.67818e-08
1.13179e-05
-3.88423e-06
-5.54986e-08
5.06551e-06
-3.40772e-06
-6.24384e-09
2.41352e-06
-3.02387e-06
8.48135e-09
1.14556e-06
-2.87721e-06
1.44568e-08
3.97429e-07
-2.99752e-06
2.08047e-08
-2.00707e-07
-3.3584e-06
3.14256e-08
-9.64894e-07
-3.75164e-06
4.90289e-08
-2.36842e-06
-3.5208e-06
9.41908e-08
-5.21927e-06
2.88924e-08
-1.16292e-05
-4.3409e-06
-4.80268e-08
1.30965e-05
-4.53182e-06
-3.70054e-08
5.96e-06
-3.96393e-06
-9.918e-09
2.86948e-06
-3.49655e-06
2.97801e-09
1.36886e-06
-3.30642e-06
9.22458e-09
4.76123e-07
-3.42851e-06
1.4905e-08
-2.35889e-07
-3.82744e-06
2.17667e-08
-1.13965e-06
-4.25056e-06
3.07638e-08
-2.79612e-06
-3.90817e-06
4.90374e-08
-6.12397e-06
1.3914e-08
-1.34466e-05
-4.368e-06
-2.17075e-08
1.32144e-05
-4.55718e-06
-1.90656e-08
6.0131e-06
-3.98896e-06
-7.5749e-09
2.9008e-06
-3.51897e-06
9.701e-11
1.38631e-06
-3.3266e-06
4.71064e-09
4.83881e-07
-3.44797e-06
8.50886e-09
-2.35826e-07
-3.84849e-06
1.21498e-08
-1.14961e-06
-4.27352e-06
1.57229e-08
-2.82646e-06
-3.93707e-06
2.02402e-08
-6.18894e-06
5.96082e-09
-1.35857e-05
-4.36519e-06
-8.64538e-09
1.32256e-05
-4.55008e-06
-8.00035e-09
6.01417e-06
-3.9837e-06
-3.77947e-09
2.90246e-06
-3.51563e-06
-4.03912e-10
1.38819e-06
-3.32408e-06
1.93929e-09