/*--------------------------------*- C++ -*----------------------------------*\
  =========                 |
  \\      /  F ield         | OpenFOAM: The Open Source CFD Toolbox
   \\    /   O peration     | Website:  https://openfoam.org
    \\  /    A nd           | Version:  9
     \\/     M anipulation  |
\*---------------------------------------------------------------------------*/
FoamFile
{
    format      ascii;
    class       surfaceScalarField;
    location    "0.34";
    object      phi;
}
// * * * * * * * * * * * * * * * * * * * * * * * * * * * * * * * * * * * * * //

dimensions      [0 3 -1 0 0 0 0];

internalField   nonuniform List<scalar> 
2700
(
-7.85626e-08
-7.46245e-08
1.53201e-07
-3.34776e-07
-6.9758e-08
3.25972e-07
-6.49605e-07
-6.49951e-08
3.79824e-07
-9.40636e-07
-7.94513e-08
3.70482e-07
-1.13504e-06
-1.18005e-07
3.12412e-07
-1.15586e-06
-1.77095e-07
1.97914e-07
-9.47608e-07
-2.39277e-07
3.10236e-08
-5.39598e-07
-2.67198e-07
-1.40812e-07
-1.18893e-07
-2.19587e-07
-2.01118e-07
-6.88126e-08
-5.00807e-08
-1.8052e-07
-1.50522e-07
2.56418e-07
-6.94509e-07
-1.81215e-07
6.25446e-07
-1.3095e-06
-1.85473e-07
7.35471e-07
-1.86022e-06
-2.09751e-07
6.81015e-07
-2.21043e-06
-2.65945e-07
4.98151e-07
-2.22489e-06
-3.47412e-07
1.84776e-07
-1.81049e-06
-4.25994e-07
-2.27676e-07
-1.03512e-06
-4.48422e-07
-5.94151e-07
-2.49385e-07
-3.65802e-07
-6.39518e-07
-1.4594e-07
-1.72258e-07
-2.38163e-07
-1.55366e-07
2.43007e-07
-8.96306e-07
-2.06422e-07
6.8335e-07
-1.67535e-06
-2.17586e-07
8.11156e-07
-2.3642e-06
-2.39679e-07
7.1878e-07
-2.79136e-06
-2.87089e-07
4.48301e-07
-2.79022e-06
-3.55158e-07
6.60911e-09
-2.24282e-06
-4.13842e-07
-5.59553e-07
-1.24884e-06
-4.23611e-07
-1.01879e-06
-2.7406e-07
-3.45897e-07
-9.94685e-07
-1.53061e-07
-2.66939e-07
-2.6572e-07
-9.50393e-08
2.05394e-07
-1.00055e-06
-1.31733e-07
6.60146e-07
-1.8685e-06
-1.40384e-07
7.90739e-07
-2.63223e-06
-1.52731e-07
6.76782e-07
-3.10022e-06
-1.78055e-07
3.5896e-07
-3.07971e-06
-2.13585e-07
-1.62083e-07
-2.45018e-06
-2.43781e-07
-7.99593e-07
-1.3297e-06
-2.46309e-07
-1.29778e-06
-2.61307e-07
-2.01756e-07
-1.21254e-06
-9.40118e-08
-3.20356e-07
-2.76261e-07
1.69417e-12
1.8122e-07
-1.04344e-06
1.09295e-12
6.35446e-07
-1.94977e-06
8.35057e-13
7.65942e-07
-2.74604e-06
6.63623e-13
6.43538e-07
-3.23083e-06
5.00315e-13
3.0674e-07
-3.20098e-06
3.89183e-13
-2.43442e-07
-2.53199e-06
3.20056e-13
-9.12766e-07
-1.3543e-06
2.61564e-13
-1.424e-06
-2.48346e-07
1.90212e-13
-1.30771e-06
8.09031e-14
-3.42358e-07
-2.76261e-07
9.50427e-08
1.8122e-07
-1.04344e-06
1.31735e-07
6.35447e-07
-1.94977e-06
1.40386e-07
7.65942e-07
-2.74604e-06
1.52732e-07
6.43538e-07
-3.23083e-06
1.78056e-07
3.0674e-07
-3.20098e-06
2.13586e-07
-2.43442e-07
-2.53199e-06
2.43781e-07
-9.12766e-07
-1.3543e-06
2.4631e-07
-1.424e-06
-2.48346e-07
2.01757e-07
-1.30771e-06
9.40119e-08
-3.42358e-07
-2.6572e-07
1.55369e-07
2.05394e-07
-1.00055e-06
2.06423e-07
6.60146e-07
-1.8685e-06
2.17588e-07
7.90739e-07
-2.63223e-06
2.3968e-07
6.76782e-07
-3.10022e-06
2.8709e-07
3.5896e-07
-3.07971e-06
3.55158e-07
-1.62083e-07
-2.45018e-06
4.13843e-07
-7.99593e-07
-1.3297e-06
4.23611e-07
-1.29778e-06
-2.61307e-07
3.45897e-07
-1.21254e-06
1.53061e-07
-3.20356e-07
-2.38163e-07
1.50524e-07
2.43008e-07
-8.96307e-07
1.81217e-07
6.83351e-07
-1.67535e-06
1.85474e-07
8.11156e-07
-2.3642e-06
2.09752e-07
7.1878e-07
-2.79136e-06
2.65946e-07
4.483e-07
-2.79022e-06
3.47413e-07
6.60884e-09
-2.24282e-06
4.25995e-07
-5.59554e-07
-1.24884e-06
4.48422e-07
-1.01879e-06
-2.7406e-07
3.65803e-07
-9.94685e-07
1.45941e-07
-2.66939e-07
-1.8052e-07
7.4627e-08
2.56418e-07
-6.9451e-07
6.9759e-08
6.25448e-07
-1.3095e-06
6.4996e-08
7.35471e-07
-1.86022e-06
7.9452e-08
6.81015e-07
-2.21043e-06
1.18005e-07
4.98151e-07
-2.22489e-06
1.77096e-07
1.84775e-07
-1.81049e-06
2.39277e-07
-2.27677e-07
-1.03512e-06
2.67199e-07
-5.94152e-07
-2.49386e-07
2.19587e-07
-6.39518e-07
6.8813e-08
-1.72258e-07
-7.85687e-08
1.53196e-07
-3.34781e-07
3.25972e-07
-6.49608e-07
3.79823e-07
-9.40638e-07
3.70482e-07
-1.13504e-06
3.12412e-07
-1.15586e-06
1.97914e-07
-9.47609e-07
3.10234e-08
-5.39599e-07
-1.40812e-07
-1.18893e-07
-2.01118e-07
-5.00807e-08
-2.3082e-07
-2.01366e-07
5.85387e-07
-7.33886e-07
-2.3989e-07
1.06893e-06
-1.3106e-06
-2.41268e-07
1.1978e-06
-1.83169e-06
-2.48519e-07
1.1401e-06
-2.17813e-06
-2.76875e-07
9.35728e-07
-2.22338e-06
-3.26429e-07
5.69588e-07
-1.87377e-06
-3.78807e-07
6.02182e-08
-1.14896e-06
-3.83405e-07
-4.82217e-07
-3.38841e-07
-2.87142e-07
-7.24091e-07
-5.01516e-08
-3.3877e-07
-5.79285e-07
-3.34419e-07
9.68755e-07
-1.7086e-06
-4.50419e-07
1.96529e-06
-2.96315e-06
-4.66432e-07
2.21518e-06
-4.05159e-06
-4.80678e-07
2.00161e-06
-4.72692e-06
-5.24693e-07
1.42131e-06
-4.75606e-06
-5.96227e-07
4.83708e-07
-3.9713e-06
-6.66799e-07
-7.24441e-07
-2.45748e-06
-6.59775e-07
-1.8316e-06
-7.88427e-07
-5.0566e-07
-2.09005e-06
-1.54424e-07
-8.56413e-07
-7.89809e-07
-3.17472e-07
1.01587e-06
-2.29778e-06
-4.5564e-07
2.19654e-06
-3.9461e-06
-4.79487e-07
2.47253e-06
-5.34639e-06
-4.93305e-07
2.1317e-06
-6.17941e-06
-5.3169e-07
1.28832e-06
-6.16803e-06
-5.93867e-07
-7.12532e-09
-5.09592e-06
-6.43917e-07
-1.65455e-06
-3.11211e-06
-6.27263e-07
-3.03511e-06
-9.7725e-07
-4.88115e-07
-3.14709e-06
-1.82597e-07
-1.21602e-06
-8.96115e-07
-1.86554e-07
9.7059e-07
-2.60878e-06
-2.76546e-07
2.19372e-06
-4.4692e-06
-2.93316e-07
2.46499e-06
-6.03302e-06
-3.01029e-07
2.04832e-06
-6.9437e-06
-3.2144e-07
1.05939e-06
-6.88937e-06
-3.5408e-07
-4.56203e-07
-5.64648e-06
-3.78084e-07
-2.30831e-06
-3.40075e-06
-3.65255e-07
-3.80552e-06
-1.03276e-06
-2.87121e-07
-3.78152e-06
-1.175e-07
-1.41821e-06
-9.37561e-07
1.20773e-12
9.32226e-07
-2.73666e-06
2.564e-13
2.158e-06
-4.68759e-06
7.18001e-14
2.42355e-06
-6.32051e-06
2.09492e-13
1.97543e-06
-7.26242e-06
3.0639e-13
9.27211e-07
-7.18506e-06
3.85344e-13
-6.7488e-07
-5.86399e-06
4.25328e-13
-2.61193e-06
-3.50403e-06
4.01674e-13
-4.14921e-06
-1.04274e-06
2.99232e-13
-4.05612e-06
1.72011e-13
-1.5026e-06
-9.3756e-07
1.86556e-07
9.32226e-07
-2.73666e-06
2.76546e-07
2.158e-06
-4.68759e-06
2.93316e-07
2.42355e-06
-6.32051e-06
3.0103e-07
1.97543e-06
-7.26242e-06
3.21441e-07
9.27211e-07
-7.18506e-06
3.54081e-07
-6.7488e-07
-5.86399e-06
3.78085e-07
-2.61193e-06
-3.50403e-06
3.65256e-07
-4.14921e-06
-1.04274e-06
2.87122e-07
-4.05612e-06
1.17501e-07
-1.5026e-06
-8.96114e-07
3.17474e-07
9.7059e-07
-2.60878e-06
4.55639e-07
2.19372e-06
-4.4692e-06
4.79487e-07
2.46499e-06
-6.03302e-06
4.93305e-07
2.04832e-06
-6.9437e-06
5.31691e-07
1.05939e-06
-6.88937e-06
5.93868e-07
-4.56203e-07
-5.64648e-06
6.43918e-07
-2.30831e-06
-3.40075e-06
6.27264e-07
-3.80552e-06
-1.03276e-06
4.88115e-07
-3.78152e-06
1.82597e-07
-1.41821e-06
-7.89808e-07
3.3442e-07
1.01587e-06
-2.29778e-06
4.50418e-07
2.19654e-06
-3.9461e-06
4.66432e-07
2.47253e-06
-5.34639e-06
4.80678e-07
2.1317e-06
-6.17941e-06
5.24694e-07
1.28832e-06
-6.16803e-06
5.96228e-07
-7.12556e-09
-5.09592e-06
6.668e-07
-1.65455e-06
-3.11211e-06
6.59775e-07
-3.03511e-06
-9.7725e-07
5.05661e-07
-3.14709e-06
1.54424e-07
-1.21602e-06
-5.79283e-07
2.01367e-07
9.68755e-07
-1.7086e-06
2.39889e-07
1.9653e-06
-2.96315e-06
2.41268e-07
2.21519e-06
-4.05159e-06
2.48519e-07
2.00161e-06
-4.72692e-06
2.76876e-07
1.42131e-06
-4.75606e-06
3.26429e-07
4.83708e-07
-3.9713e-06
3.78808e-07
-7.24441e-07
-2.45748e-06
3.83405e-07
-1.8316e-06
-7.88427e-07
2.87142e-07
-2.09005e-06
5.01518e-08
-8.56413e-07
-2.3082e-07
5.85383e-07
-7.33887e-07
1.06893e-06
-1.3106e-06
1.1978e-06
-1.83169e-06
1.1401e-06
-2.17813e-06
9.35728e-07
-2.22338e-06
5.69588e-07
-1.87377e-06
6.02181e-08
-1.14896e-06
-4.82217e-07
-3.38841e-07
-7.24091e-07
-3.3877e-07
-3.40911e-07
-3.14491e-07
1.24079e-06
-1.01582e-06
-3.87966e-07
2.1318e-06
-1.76969e-06
-3.87091e-07
2.33876e-06
-2.46577e-06
-3.75194e-07
2.21138e-06
-2.97683e-06
-3.78899e-07
1.82569e-06
-3.14043e-06
-4.07281e-07
1.14047e-06
-2.78563e-06
-4.45392e-07
1.50802e-07
-1.85153e-06
-4.47772e-07
-9.68542e-07
-6.42332e-07
-3.33922e-07
-1.59937e-06
-2.58606e-08
-9.55242e-07
-8.96283e-07
-5.00671e-07
2.05122e-06
-2.49725e-06
-6.82545e-07
3.86084e-06
-4.22731e-06
-6.91714e-07
4.24987e-06
-5.7455e-06
-6.68436e-07
3.81304e-06
-6.7668e-06
-6.64186e-07
2.72789e-06
-6.98018e-06
-6.9051e-07
9.8032e-07
-6.08893e-06
-7.22659e-07
-1.33843e-06
-4.041e-06
-7.01489e-07
-3.62582e-06
-1.47186e-06
-5.35648e-07
-4.45747e-06
-1.24689e-07
-2.22944e-06
-1.24841e-06
-4.60806e-07
2.22441e-06
-3.43461e-06
-6.63719e-07
4.36392e-06
-5.75377e-06
-6.79201e-07
4.77919e-06
-7.73438e-06
-6.53532e-07
4.0974e-06
-9.0013e-06
-6.39873e-07
2.53093e-06
-9.17237e-06
-6.46515e-07
1.19951e-07
-7.90098e-06
-6.53882e-07
-2.99472e-06
-5.1747e-06
-6.20316e-07
-5.84256e-06
-1.85465e-06
-4.83538e-07
-6.51924e-06
-1.57772e-07
-3.03759e-06
-1.43185e-06
-2.65486e-07
2.20712e-06
-3.93833e-06
-3.93803e-07
4.43029e-06
-6.57538e-06
-4.04973e-07
4.82781e-06
-8.79483e-06
-3.88083e-07
4.00232e-06
-1.0173e-05
-3.75797e-07
2.17352e-06
-1.0293e-05
-3.72982e-07
-6.0978e-07
-8.78873e-06
-3.68144e-07
-4.0983e-06
-5.6891e-06
-3.44615e-07
-7.18085e-06
-1.99571e-06
-2.72821e-07
-7.68563e-06
-1.0284e-07
-3.46886e-06
-1.50449e-06
1.03001e-12
2.17123e-06
-4.14603e-06
4.41411e-14
4.40574e-06
-6.91755e-06
-1.47466e-13
4.7901e-06
-9.23599e-06
1.90016e-14
3.90579e-06
-1.06567e-05
1.53836e-13
1.97208e-06
-1.07462e-05
2.48071e-13
-9.58357e-07
-9.13663e-06
2.97455e-13
-4.58961e-06
-5.87813e-06
2.69182e-13
-7.75233e-06
-2.03732e-06
2.01585e-13
-8.16975e-06
1.55346e-13
-3.64276e-06
-1.50449e-06
2.65488e-07
2.17123e-06
-4.14603e-06
3.93803e-07
4.40574e-06
-6.91755e-06
4.04973e-07
4.7901e-06
-9.23599e-06
3.88083e-07
3.90579e-06
-1.06567e-05
3.75797e-07
1.97208e-06
-1.07462e-05
3.72982e-07
-9.58357e-07
-9.13663e-06
3.68145e-07
-4.58961e-06
-5.87813e-06
3.44616e-07
-7.75233e-06
-2.03732e-06
2.72822e-07
-8.16975e-06
1.0284e-07
-3.64276e-06
-1.43185e-06
4.60808e-07
2.20712e-06
-3.93833e-06
6.63719e-07
4.43029e-06
-6.57538e-06
6.79201e-07
4.82781e-06
-8.79482e-06
6.53532e-07
4.00232e-06
-1.0173e-05
6.39874e-07
2.17352e-06
-1.0293e-05
6.46515e-07
-6.0978e-07
-8.78873e-06
6.53882e-07
-4.0983e-06
-5.6891e-06
6.20317e-07
-7.18085e-06
-1.99571e-06
4.83539e-07
-7.68563e-06
1.57772e-07
-3.46886e-06
-1.24841e-06
5.00672e-07
2.22441e-06
-3.4346e-06
6.82544e-07
4.36392e-06
-5.75377e-06
6.91714e-07
4.77919e-06
-7.73438e-06
6.68436e-07
4.0974e-06
-9.0013e-06
6.64186e-07
2.53093e-06
-9.17237e-06
6.9051e-07
1.19951e-07
-7.90098e-06
7.2266e-07
-2.99472e-06
-5.17469e-06
7.01489e-07
-5.84256e-06
-1.85465e-06
5.35649e-07
-6.51924e-06
1.24689e-07
-3.03759e-06
-8.96282e-07
3.14491e-07
2.05122e-06
-2.49725e-06
3.87966e-07
3.86084e-06
-4.22731e-06
3.87091e-07
4.24988e-06
-5.7455e-06
3.75195e-07
3.81304e-06
-6.7668e-06
3.78899e-07
2.72789e-06
-6.98018e-06
4.07281e-07
9.8032e-07
-6.08893e-06
4.45392e-07
-1.33843e-06
-4.041e-06
4.47772e-07
-3.62582e-06
-1.47186e-06
3.33922e-07
-4.45747e-06
2.58607e-08
-2.22944e-06
-3.40912e-07
1.24079e-06
-1.01582e-06
2.1318e-06
-1.76969e-06
2.33876e-06
-2.46577e-06
2.21138e-06
-2.97683e-06
1.82569e-06
-3.14043e-06
1.14047e-06
-2.78563e-06
1.50802e-07
-1.85153e-06
-9.68541e-07
-6.42333e-07
-1.59937e-06
-9.55242e-07
-4.42997e-07
-4.29651e-07
2.11344e-06
-1.26381e-06
-5.27855e-07
3.48047e-06
-2.16809e-06
-5.06499e-07
3.74954e-06
-3.04471e-06
-4.49338e-07
3.53733e-06
-3.79019e-06
-3.94787e-07
2.96596e-06
-4.21607e-06
-3.66559e-07
1.93291e-06
-4.02828e-06
-3.68798e-07
3.31814e-07
-2.97204e-06
-3.91944e-07
-1.63284e-06
-1.226e-06
-3.27878e-07
-3.01753e-06
-1.131e-08
-2.16993e-06
-1.18744e-06
-6.70401e-07
3.47941e-06
-3.20595e-06
-9.00303e-07
6.2518e-06
-5.36046e-06
-8.67896e-07
6.76578e-06
-7.31999e-06
-7.53208e-07
6.07644e-06
-8.81405e-06
-6.27142e-07
4.4543e-06
-9.46413e-06
-5.26283e-07
1.79012e-06
-8.77395e-06
-4.6933e-07
-1.92808e-06
-6.3507e-06
-4.65763e-07
-5.97524e-06
-2.64945e-06
-4.12236e-07
-8.07437e-06
-8.38232e-08
-4.80638e-06
-1.66854e-06
-6.06376e-07
3.82893e-06
-4.46119e-06
-8.55761e-07
7.11203e-06
-7.38368e-06
-8.27062e-07
7.66084e-06
-9.94983e-06
-7.05028e-07
6.61537e-06
-1.17862e-05
-5.60496e-07
4.30068e-06
-1.24212e-05
-4.24361e-07
6.53022e-07
-1.13042e-05
-3.36301e-07
-4.24474e-06
-8.04454e-06
-3.16487e-07
-9.25153e-06
-3.30264e-06
-3.05167e-07
-1.13682e-05
-1.06132e-07
-6.31792e-06
-1.92088e-06
-3.45047e-07
3.86667e-06
-5.1372e-06
-5.00306e-07
7.29115e-06
-8.47006e-06
-4.83896e-07
7.8175e-06
-1.13388e-05
-4.0732e-07
6.57337e-06
-1.33099e-05
-3.13985e-07
3.89813e-06
-1.38908e-05
-2.24009e-07
-2.29257e-07
-1.24959e-05
-1.58284e-07
-5.67124e-06
-8.78931e-06
-1.43158e-07
-1.10608e-05
-3.55664e-06
-1.50561e-07
-1.30729e-05
-6.73846e-08
-7.06425e-06
-2.02041e-06
8.62739e-13
3.84659e-06
-5.41362e-06
4.12805e-14
7.29864e-06
-8.91701e-06
-1.88581e-13
7.80959e-06
-1.19068e-05
-9.54541e-14
6.48822e-06
-1.39255e-05
-1.22736e-14
3.67685e-06
-1.44659e-05
5.52527e-14
-6.42003e-07
-1.29481e-05
1.00715e-13
-6.26569e-06
-9.05927e-06
9.93601e-14
-1.17843e-05
-3.6407e-06
1.58557e-13
-1.37389e-05
1.47185e-13
-7.35084e-06
-2.02041e-06
3.45049e-07
3.84659e-06
-5.41362e-06
5.00306e-07
7.29864e-06
-8.91701e-06
4.83896e-07
7.80959e-06
-1.19068e-05
4.0732e-07
6.48822e-06
-1.39255e-05
3.13985e-07
3.67685e-06
-1.44659e-05
2.24009e-07
-6.42003e-07
-1.29481e-05
1.58284e-07
-6.26569e-06
-9.05927e-06
1.43158e-07
-1.17843e-05
-3.6407e-06
1.50561e-07
-1.37389e-05
6.73848e-08
-7.35084e-06
-1.92087e-06
6.06377e-07
3.86667e-06
-5.1372e-06
8.55761e-07
7.29115e-06
-8.47006e-06
8.27061e-07
7.8175e-06
-1.13388e-05
7.05028e-07
6.57337e-06
-1.33099e-05
5.60496e-07
3.89813e-06
-1.38908e-05
4.24361e-07
-2.29257e-07
-1.24959e-05
3.36301e-07
-5.67124e-06
-8.78931e-06
3.16487e-07
-1.10608e-05
-3.55664e-06
3.05168e-07
-1.30729e-05
1.06132e-07
-7.06425e-06
-1.66854e-06
6.70402e-07
3.82892e-06
-4.46119e-06
9.00303e-07
7.11203e-06
-7.38368e-06
8.67895e-07
7.66084e-06
-9.94983e-06
7.53208e-07
6.61537e-06
-1.17862e-05
6.27142e-07
4.30068e-06
-1.24212e-05
5.26283e-07
6.53022e-07
-1.13042e-05
4.6933e-07
-4.24474e-06
-8.04454e-06
4.65764e-07
-9.25153e-06
-3.30264e-06
4.12236e-07
-1.13682e-05
8.38234e-08
-6.31792e-06
-1.18744e-06
4.29652e-07
3.4794e-06
-3.20595e-06
5.27855e-07
6.2518e-06
-5.36046e-06
5.06499e-07
6.76578e-06
-7.31999e-06
4.49338e-07
6.07644e-06
-8.81405e-06
3.94788e-07
4.4543e-06
-9.46413e-06
3.66559e-07
1.79012e-06
-8.77394e-06
3.68798e-07
-1.92808e-06
-6.3507e-06
3.91944e-07
-5.97524e-06
-2.64945e-06
3.27878e-07
-8.07437e-06
1.13101e-08
-4.80638e-06
-4.42997e-07
2.11344e-06
-1.26381e-06
3.48047e-06
-2.16809e-06
3.74954e-06
-3.04471e-06
3.53733e-06
-3.79019e-06
2.96596e-06
-4.21607e-06
1.93291e-06
-4.02828e-06
3.31814e-07
-2.97204e-06
-1.63284e-06
-1.226e-06
-3.01753e-06
-2.16993e-06
-5.76769e-07
-5.46146e-07
3.23635e-06
-1.51904e-06
-6.50614e-07
5.07336e-06
-2.52148e-06
-5.69559e-07
5.32153e-06
-3.54977e-06
-4.05836e-07
4.97146e-06
-4.57701e-06
-2.06552e-07
4.19975e-06
-5.43538e-06
-1.1621e-08
2.8029e-06
-5.68352e-06
8.53536e-08
4.94595e-07
-4.72075e-06
2.58052e-08
-2.62141e-06
-2.33113e-06
-1.23385e-07
-5.28377e-06
-1.79521e-08
-4.4831e-06
-1.50924e-06
-8.36506e-07
5.27901e-06
-3.89124e-06
-1.08413e-06
9.06731e-06
-6.3718e-06
-9.43213e-07
9.61999e-06
-8.70892e-06
-6.28567e-07
8.63629e-06
-1.07259e-05
-2.33581e-07
6.49833e-06
-1.20377e-05
1.52934e-07
2.93733e-06
-1.19419e-05
3.94368e-07
-2.33287e-06
-9.52466e-06
3.19348e-07
-8.68602e-06
-4.61867e-06
1.4357e-08
-1.31181e-05
-5.06033e-08
-9.39239e-06
-2.10124e-06
-7.45082e-07
5.83875e-06
-5.41516e-06
-1.01222e-06
1.0354e-05
-8.80184e-06
-8.75942e-07
1.09802e-05
-1.18396e-05
-5.54353e-07
9.57894e-06
-1.42373e-05
-1.43352e-07
6.60809e-06
-1.55192e-05
2.63992e-07
1.82395e-06
-1.49607e-05
5.25649e-07
-4.93458e-06
-1.16605e-05
4.57934e-07
-1.26903e-05
-5.56307e-06
1.25876e-07
-1.75771e-05
-4.71094e-08
-1.18845e-05
-2.40558e-06
-4.19387e-07
5.94655e-06
-6.22054e-06
-5.84659e-07
1.06786e-05
-1.00769e-05
-5.03806e-07
1.13017e-05
-1.34382e-05
-3.07836e-07
9.68823e-06
-1.5952e-05
-5.55971e-08
6.32414e-06
-1.71098e-05
1.96665e-07
9.95914e-07
-1.62427e-05
3.53498e-07
-6.36627e-06
-1.25067e-05
3.0943e-07
-1.46483e-05
-5.91769e-06
1.01858e-07
-1.96379e-05
-2.4572e-08
-1.30045e-05
-2.52237e-06
6.62891e-13
5.94957e-06
-6.54126e-06
1.65318e-14
1.07329e-05
-1.05857e-05
-2.72986e-13
1.13503e-05
-1.40671e-05
-2.92213e-13
9.66179e-06
-1.66069e-05
-2.50277e-13
6.16099e-06
-1.76973e-05
-1.58581e-13
6.45127e-07
-1.66964e-05
-4.75471e-14
-6.91312e-06
-1.27995e-05
4.3805e-14
-1.53718e-05
-6.04146e-06
1.56316e-13
-2.03951e-05
1.38671e-13
-1.34169e-05
-2.52237e-06
4.19388e-07
5.94957e-06
-6.54126e-06
5.84659e-07
1.07329e-05
-1.05857e-05
5.03806e-07
1.13503e-05
-1.40671e-05
3.07836e-07
9.66179e-06
-1.66069e-05
5.55967e-08
6.16099e-06
-1.76973e-05
-1.96665e-07
6.45127e-07
-1.66964e-05
-3.53498e-07
-6.91312e-06
-1.27995e-05
-3.0943e-07
-1.53718e-05
-6.04146e-06
-1.01858e-07
-2.03951e-05
2.45723e-08
-1.34169e-05
-2.40558e-06
7.45083e-07
5.94655e-06
-6.22054e-06
1.01222e-06
1.06786e-05
-1.00769e-05
8.75942e-07
1.13017e-05
-1.34382e-05
5.54353e-07
9.68823e-06
-1.5952e-05
1.43351e-07
6.32414e-06
-1.71098e-05
-2.63993e-07
9.95914e-07
-1.62427e-05
-5.25649e-07
-6.36627e-06
-1.25067e-05
-4.57934e-07
-1.46483e-05
-5.91769e-06
-1.25876e-07
-1.96379e-05
4.71096e-08
-1.30045e-05
-2.10124e-06
8.36506e-07
5.83875e-06
-5.41516e-06
1.08413e-06
1.0354e-05
-8.80184e-06
9.43213e-07
1.09803e-05
-1.18396e-05
6.28567e-07
9.57894e-06
-1.42373e-05
2.33582e-07
6.60809e-06
-1.55192e-05
-1.52934e-07
1.82395e-06
-1.49607e-05
-3.94367e-07
-4.93458e-06
-1.16605e-05
-3.19348e-07
-1.26903e-05
-5.56307e-06
-1.43567e-08
-1.75771e-05
5.06035e-08
-1.18845e-05
-1.50924e-06
5.46147e-07
5.27901e-06
-3.89124e-06
6.50614e-07
9.06731e-06
-6.3718e-06
5.69559e-07
9.61999e-06
-8.70892e-06
4.05837e-07
8.63629e-06
-1.07259e-05
2.06552e-07
6.49833e-06
-1.20377e-05
1.16212e-08
2.93733e-06
-1.19419e-05
-8.53535e-08
-2.33287e-06
-9.52466e-06
-2.58051e-08
-8.68602e-06
-4.61867e-06
1.23385e-07
-1.31181e-05
1.79522e-08
-9.39239e-06
-5.7677e-07
3.23635e-06
-1.51904e-06
5.07336e-06
-2.52148e-06
5.32153e-06
-3.54977e-06
4.97146e-06
-4.57701e-06
4.19975e-06
-5.43538e-06
2.8029e-06
-5.68352e-06
4.94595e-07
-4.72075e-06
-2.62141e-06
-2.33113e-06
-5.28377e-06
-4.4831e-06
-8.17672e-07
-6.64655e-07
4.71868e-06
-1.82092e-06
-7.39201e-07
6.81581e-06
-2.77054e-06
-5.2939e-07
6.80054e-06
-3.80243e-06
-1.56612e-07
6.15996e-06
-5.05244e-06
3.1901e-07
5.13075e-06
-6.4493e-06
8.01785e-07
3.39797e-06
-7.46147e-06
1.104e-06
4.02765e-07
-7.01846e-06
9.49037e-07
-4.01345e-06
-4.147e-06
3.83465e-07
-8.5387e-06
-7.68339e-08
-8.55327e-06
-1.93361e-06
-9.92985e-07
7.54095e-06
-4.53812e-06
-1.20766e-06
1.21403e-05
-7.039e-06
-8.56158e-07
1.24476e-05
-9.40522e-06
-1.90251e-07
1.10361e-05
-1.16748e-05
6.58626e-07
8.42827e-06
-1.36174e-05
1.50898e-06
4.1728e-06
-1.44695e-05
2.02087e-06
-2.39763e-06
-1.278e-05
1.75982e-06
-1.11863e-05
-7.24699e-06
7.72426e-07
-1.90401e-05
-8.19427e-08
-1.66343e-05
-2.59238e-06
-8.68253e-07
8.30639e-06
-6.21061e-06
-1.1098e-06
1.38744e-05
-9.64517e-06
-7.78553e-07
1.43372e-05
-1.2659e-05
-1.28887e-07
1.25314e-05
-1.51724e-05
6.94244e-07
9.0859e-06
-1.69049e-05
1.50078e-06
3.56467e-06
-1.71932e-05
1.95051e-06
-4.57594e-06
-1.47151e-05
1.66296e-06
-1.50716e-05
-8.22137e-06
7.29377e-07
-2.40278e-05
-4.84528e-08
-2.01393e-05
-2.91212e-06
-4.82746e-07
8.47317e-06
-7.05272e-06
-6.34091e-07
1.43434e-05
-1.09431e-05
-4.41235e-07
1.48548e-05
-1.42096e-05
-5.7058e-08
1.28828e-05
-1.67133e-05
4.2749e-07
9.09455e-06
-1.81869e-05
8.93379e-07
3.07698e-06
-1.81125e-05
1.13549e-06
-5.62562e-06
-1.53141e-05
9.48006e-07
-1.67317e-05
-8.54922e-06
4.10457e-07
-2.60838e-05
-1.74671e-08
-2.15847e-05
-3.02723e-06
4.65672e-13
8.49406e-06
-7.37028e-06
-3.84577e-14
1.44418e-05
-1.14317e-05
-3.53791e-13
1.49705e-05
-1.47772e-05
-4.39898e-13
1.29502e-05
-1.72474e-05
-3.72587e-13
9.0587e-06
-1.85982e-05
-2.1257e-13
2.88926e-06
-1.83886e-05
-3.58824e-14
-5.98714e-06
-1.55054e-05
8.16347e-14
-1.7307e-05
-8.67573e-06
1.46209e-13
-2.68143e-05
1.73826e-13
-2.21101e-05
-3.02723e-06
4.82747e-07
8.49406e-06
-7.37028e-06
6.34091e-07
1.44418e-05
-1.14317e-05
4.41235e-07
1.49705e-05
-1.47772e-05
5.70572e-08
1.29502e-05
-1.72474e-05
-4.27491e-07
9.0587e-06
-1.85982e-05
-8.9338e-07
2.88926e-06
-1.83887e-05
-1.13549e-06
-5.98714e-06
-1.55054e-05
-9.48006e-07
-1.7307e-05
-8.67573e-06
-4.10457e-07
-2.68143e-05
1.74674e-08
-2.21101e-05
-2.91212e-06
8.68253e-07
8.47317e-06
-7.05272e-06
1.1098e-06
1.43434e-05
-1.09431e-05
7.78552e-07
1.48548e-05
-1.42096e-05
1.28886e-07
1.28828e-05
-1.67133e-05
-6.94244e-07
9.09455e-06
-1.81869e-05
-1.50078e-06
3.07698e-06
-1.81125e-05
-1.95051e-06
-5.62562e-06
-1.53141e-05
-1.66296e-06
-1.67317e-05
-8.54922e-06
-7.29376e-07
-2.60838e-05
4.8453e-08
-2.15847e-05
-2.59238e-06
9.92986e-07
8.30639e-06
-6.21061e-06
1.20766e-06
1.38744e-05
-9.64517e-06
8.56158e-07
1.43372e-05
-1.2659e-05
1.90251e-07
1.25314e-05
-1.51724e-05
-6.58626e-07
9.0859e-06
-1.69049e-05
-1.50898e-06
3.56467e-06
-1.71932e-05
-2.02086e-06
-4.57594e-06
-1.47151e-05
-1.75982e-06
-1.50716e-05
-8.22137e-06
-7.72426e-07
-2.40278e-05
8.19428e-08
-2.01393e-05
-1.93361e-06
6.64655e-07
7.54095e-06
-4.53812e-06
7.39201e-07
1.21403e-05
-7.039e-06
5.2939e-07
1.24476e-05
-9.40522e-06
1.56612e-07
1.10361e-05
-1.16748e-05
-3.1901e-07
8.42827e-06
-1.36174e-05
-8.01785e-07
4.1728e-06
-1.44695e-05
-1.104e-06
-2.39763e-06
-1.278e-05
-9.49037e-07
-1.11863e-05
-7.24699e-06
-3.83465e-07
-1.90401e-05
7.68339e-08
-1.66343e-05
-8.17672e-07
4.71868e-06
-1.82092e-06
6.81581e-06
-2.77054e-06
6.80054e-06
-3.80243e-06
6.15996e-06
-5.05244e-06
5.13075e-06
-6.4493e-06
3.39797e-06
-7.46147e-06
4.02765e-07
-7.01846e-06
-4.01345e-06
-4.147e-06
-8.5387e-06
-8.55327e-06
-1.38758e-06
-8.13748e-07
6.92001e-06
-2.24871e-06
-8.18101e-07
8.49504e-06
-2.7779e-06
-3.99232e-07
7.72897e-06
-3.42901e-06
2.72395e-07
6.53868e-06
-4.58847e-06
1.11365e-06
5.17656e-06
-6.40353e-06
2.00461e-06
3.20843e-06
-8.41019e-06
2.61952e-06
-2.10092e-07
-9.10227e-06
2.39125e-06
-5.71263e-06
-6.40239e-06
1.17411e-06
-1.24127e-05
-2.49525e-07
-1.47061e-05
-2.6931e-06
-1.16456e-06
1.05849e-05
-5.1388e-06
-1.29947e-06
1.50674e-05
-6.94509e-06
-6.45665e-07
1.45004e-05
-8.49396e-06
4.61462e-07
1.2396e-05
-1.01943e-05
1.83763e-06
9.40464e-06
-1.21747e-05
3.20581e-06
4.95201e-06
-1.39284e-05
4.0097e-06
-2.03413e-06
-1.38101e-05
3.4899e-06
-1.24033e-05
-9.28462e-06
1.58248e-06
-2.39739e-05
-3.39854e-07
-2.58286e-05
-3.33494e-06
-9.89484e-07
1.14663e-05
-6.74842e-06
-1.17006e-06
1.71585e-05
-9.33345e-06
-5.81449e-07
1.6858e-05
-1.12481e-05
4.43937e-07
1.44636e-05
-1.28012e-05
1.70115e-06
1.07754e-05
-1.41659e-05
2.8927e-06
5.24248e-06
-1.51013e-05
3.48822e-06
-3.11896e-06
-1.43706e-05
2.8915e-06
-1.5204e-05
-9.60035e-06
1.21199e-06
-2.84275e-05
-2.60062e-07
-2.98195e-05
-3.61089e-06
-5.40695e-07
1.16353e-05
-7.48503e-06
-6.603e-07
1.77078e-05
-1.04171e-05
-3.27057e-07
1.75325e-05
-1.24183e-05
2.61875e-07
1.50661e-05
-1.37524e-05
9.76179e-07
1.11536e-05
-1.46707e-05
1.63178e-06
5.25618e-06
-1.5169e-05
1.92111e-06
-3.56021e-06
-1.42879e-05
1.54007e-06
-1.62614e-05
-9.65103e-06
6.14471e-07
-3.01232e-05
-1.24418e-07
-3.13713e-05
-3.69694e-06
2.68356e-13
1.16503e-05
-7.73377e-06
-1.21133e-13
1.78184e-05
-1.0781e-05
-4.40754e-13
1.76907e-05
-1.27885e-05
-5.44855e-13
1.52195e-05
-1.40102e-05
-4.30259e-13
1.12566e-05
-1.47508e-05
-2.02002e-13
5.26161e-06
-1.51196e-05
8.62996e-15
-3.69715e-06
-1.42547e-05
1.37065e-13
-1.66319e-05
-9.7102e-06
1.93459e-13
-3.07443e-05
2.34343e-13
-3.19447e-05
-3.69694e-06
5.40696e-07
1.16503e-05
-7.73377e-06
6.603e-07
1.78184e-05
-1.0781e-05
3.27056e-07
1.76907e-05
-1.27885e-05
-2.61876e-07
1.52195e-05
-1.40102e-05
-9.7618e-07
1.12566e-05
-1.47508e-05
-1.63178e-06
5.26161e-06
-1.51196e-05
-1.92111e-06
-3.69715e-06
-1.42547e-05
-1.54007e-06
-1.66319e-05
-9.7102e-06
-6.14471e-07
-3.07443e-05
1.24419e-07
-3.19447e-05
-3.61089e-06
9.89485e-07
1.16353e-05
-7.48503e-06
1.17006e-06
1.77078e-05
-1.04171e-05
5.81448e-07
1.75325e-05
-1.24183e-05
-4.43938e-07
1.50661e-05
-1.37524e-05
-1.70115e-06
1.11536e-05
-1.46707e-05
-2.8927e-06
5.25618e-06
-1.5169e-05
-3.48822e-06
-3.56021e-06
-1.42879e-05
-2.8915e-06
-1.62614e-05
-9.65103e-06
-1.21199e-06
-3.01232e-05
2.60062e-07
-3.13713e-05
-3.33494e-06
1.16456e-06
1.14663e-05
-6.74842e-06
1.29947e-06
1.71585e-05
-9.33345e-06
6.45665e-07
1.6858e-05
-1.12481e-05
-4.61462e-07
1.44636e-05
-1.28012e-05
-1.83763e-06
1.07754e-05
-1.41659e-05
-3.20581e-06
5.24248e-06
-1.51013e-05
-4.0097e-06
-3.11896e-06
-1.43706e-05
-3.4899e-06
-1.5204e-05
-9.60035e-06
-1.58248e-06
-2.84275e-05
3.39854e-07
-2.98195e-05
-2.6931e-06
8.13749e-07
1.05849e-05
-5.1388e-06
8.18101e-07
1.50674e-05
-6.94509e-06
3.99232e-07
1.45004e-05
-8.49397e-06
-2.72395e-07
1.2396e-05
-1.01943e-05
-1.11365e-06
9.40464e-06
-1.21747e-05
-2.0046e-06
4.95201e-06
-1.39284e-05
-2.61952e-06
-2.03413e-06
-1.38101e-05
-2.39125e-06
-1.24033e-05
-9.28462e-06
-1.17411e-06
-2.39739e-05
2.49525e-07
-2.58286e-05
-1.38758e-06
6.92001e-06
-2.24871e-06
8.49504e-06
-2.7779e-06
7.72897e-06
-3.42901e-06
6.53868e-06
-4.58847e-06
5.17656e-06
-6.40353e-06
3.20843e-06
-8.41019e-06
-2.10092e-07
-9.10227e-06
-5.71263e-06
-6.40239e-06
-1.24127e-05
-1.47061e-05
-2.62398e-06
-1.09102e-06
1.0635e-05
-2.64485e-06
-1.05052e-06
9.56642e-06
-1.90387e-06
-4.27253e-07
7.41525e-06
-1.39468e-06
5.1333e-07
5.51615e-06
-1.77433e-06
1.64938e-06
3.90682e-06
-3.43022e-06
2.87223e-06
1.99209e-06
-6.29396e-06
3.83744e-06
-1.1838e-06
-8.68773e-06
3.64954e-06
-6.96839e-06
-7.63992e-06
1.73426e-06
-1.51948e-05
-8.88146e-07
-2.14579e-05
-4.38973e-06
-1.46466e-06
1.53482e-05
-5.54212e-06
-1.57844e-06
1.67477e-05
-5.09803e-06
-6.87035e-07
1.43161e-05
-4.27134e-06
7.17528e-07
1.13651e-05
-3.92625e-06
2.41248e-06
8.29644e-06
-4.62867e-06
4.10558e-06
4.42108e-06
-6.52013e-06
5.21481e-06
-1.52004e-06
-8.53967e-06
4.60407e-06
-1.13383e-05
-7.64416e-06
1.83083e-06
-2.4966e-05
-1.19198e-06
-3.31689e-05
-5.05436e-06
-1.18791e-06
1.62439e-05
-6.9626e-06
-1.36642e-06
1.88547e-05
-6.90666e-06
-6.09704e-07
1.67247e-05
-5.94715e-06
6.16171e-07
1.36054e-05
-4.90148e-06
2.06974e-06
1.00725e-05
-4.45275e-06
3.45139e-06
5.44794e-06
-5.09917e-06
4.21632e-06
-1.47405e-06
-6.62137e-06
3.50594e-06
-1.25837e-05
-6.38702e-06
1.23181e-06
-2.80629e-05
-8.54334e-07
-3.65442e-05
-5.27312e-06
-6.31258e-07
1.63517e-05
-7.50841e-06
-7.53333e-07
1.933e-05
-7.62127e-06
-3.39723e-07
1.73754e-05
-6.56386e-06
3.39928e-07
1.42849e-05
-5.13279e-06
1.13865e-06
1.06536e-05
-4.10104e-06
1.874e-06
5.80182e-06
-4.2236e-06
2.23555e-06
-1.45688e-06
-5.71464e-06
1.79248e-06
-1.30569e-05
-5.97794e-06
5.92613e-07
-2.92207e-05
-3.95706e-07
-3.78079e-05
-5.31965e-06
7.73889e-14
1.63387e-05
-7.65046e-06
-2.61367e-13
1.93958e-05
-7.80538e-06
-5.41018e-13
1.75059e-05
-6.69615e-06
-5.9988e-13
1.44502e-05
-5.11669e-06
-4.48e-13
1.08158e-05
-3.89194e-06
-1.98321e-13
5.91086e-06
-3.89215e-06
2.51051e-14
-1.46138e-06
-5.47161e-06
1.41974e-13
-1.326e-05
-5.94591e-06
1.85538e-13
-2.96774e-05
2.1986e-13
-3.82863e-05
-5.31965e-06
6.31258e-07
1.63387e-05
-7.65046e-06
7.53332e-07
1.93958e-05
-7.80538e-06
3.39722e-07
1.75059e-05
-6.69615e-06
-3.39929e-07
1.44502e-05
-5.11669e-06
-1.13865e-06
1.08158e-05
-3.89194e-06
-1.874e-06
5.91086e-06
-3.89215e-06
-2.23555e-06
-1.46138e-06
-5.47161e-06
-1.79248e-06
-1.326e-05
-5.94591e-06
-5.92613e-07
-2.96774e-05
3.95707e-07
-3.82863e-05
-5.27312e-06
1.18791e-06
1.63517e-05
-7.50841e-06
1.36642e-06
1.933e-05
-7.62127e-06
6.09703e-07
1.73754e-05
-6.56386e-06
-6.16172e-07
1.42849e-05
-5.13279e-06
-2.06974e-06
1.06536e-05
-4.10104e-06
-3.45139e-06
5.80182e-06
-4.2236e-06
-4.21632e-06
-1.45688e-06
-5.71464e-06
-3.50594e-06
-1.30569e-05
-5.97794e-06
-1.23181e-06
-2.92207e-05
8.54334e-07
-3.78079e-05
-5.05436e-06
1.46466e-06
1.62439e-05
-6.9626e-06
1.57844e-06
1.88547e-05
-6.90666e-06
6.87035e-07
1.67247e-05
-5.94715e-06
-7.17528e-07
1.36054e-05
-4.90148e-06
-2.41248e-06
1.00725e-05
-4.45275e-06
-4.10558e-06
5.44794e-06
-5.09918e-06
-5.21481e-06
-1.47405e-06
-6.62137e-06
-4.60407e-06
-1.25837e-05
-6.38702e-06
-1.83083e-06
-2.80629e-05
1.19198e-06
-3.65442e-05
-4.38973e-06
1.09102e-06
1.53482e-05
-5.54212e-06
1.05052e-06
1.67477e-05
-5.09803e-06
4.27253e-07
1.43161e-05
-4.27135e-06
-5.1333e-07
1.13651e-05
-3.92625e-06
-1.64938e-06
8.29644e-06
-4.62867e-06
-2.87223e-06
4.42108e-06
-6.52013e-06
-3.83744e-06
-1.52004e-06
-8.53967e-06
-3.64954e-06
-1.13383e-05
-7.64416e-06
-1.73426e-06
-2.4966e-05
8.88146e-07
-3.31689e-05
-2.62398e-06
1.0635e-05
-2.64485e-06
9.56642e-06
-1.90387e-06
7.41525e-06
-1.39468e-06
5.51615e-06
-1.77433e-06
3.90682e-06
-3.43022e-06
1.99209e-06
-6.29396e-06
-1.1838e-06
-8.68773e-06
-6.96839e-06
-7.63992e-06
-1.51948e-05
-2.14579e-05
-2.75305e-06
-1.81578e-06
1.52038e-05
2.06251e-07
-1.83563e-06
8.44275e-06
4.05932e-06
-1.08856e-06
4.65074e-06
6.83356e-06
-1.04927e-07
2.84684e-06
8.0665e-06
1.06201e-06
1.61187e-06
7.29319e-06
2.32245e-06
4.42956e-07
4.13682e-06
3.53851e-06
-1.56595e-06
-6.99748e-07
3.53747e-06
-5.66929e-06
-3.50643e-06
1.10852e-06
-1.34966e-05
-2.56754e-06
-2.23968e-05
-4.96621e-06
-2.12193e-06
2.06206e-05
-1.27647e-06
-2.46854e-06
1.36908e-05
4.29356e-06
-1.63326e-06
9.29073e-06
9.24415e-06
-3.04712e-07
6.61426e-06
1.2902e-05
1.25505e-06
4.44559e-06
1.45461e-05
2.88887e-06
2.21055e-06
1.32698e-05
4.26364e-06
-9.68858e-07
8.76571e-06
3.99103e-06
-7.2878e-06
2.85547e-06
9.52624e-07
-1.88999e-05
-2.56276e-06
-3.03182e-05
-5.74196e-06
-1.5758e-06
2.14397e-05
-2.28792e-06
-1.98562e-06
1.49177e-05
3.41555e-06
-1.36944e-06
1.07574e-05
9.00975e-06
-3.21871e-07
8.02841e-06
1.3761e-05
9.34172e-07
5.64213e-06
1.68449e-05
2.21028e-06
3.04265e-06
1.69395e-05
3.18913e-06
-4.94171e-07
1.29804e-05
2.89653e-06
-7.53011e-06
5.37576e-06
6.64171e-07
-2.01697e-05
-1.57484e-06
-3.21563e-05
-5.90032e-06
-7.9959e-07
2.14758e-05
-2.57902e-06
-1.05022e-06
1.50733e-05
3.1098e-06
-7.36156e-07
1.10533e-05
8.8794e-06
-1.89667e-07
8.38314e-06
1.40085e-05
4.73951e-07
5.98476e-06
1.75934e-05
1.13913e-06
3.28801e-06
1.80811e-05
1.62135e-06
-3.76773e-07