/*--------------------------------*- C++ -*----------------------------------*\
  =========                 |
  \\      /  F ield         | OpenFOAM: The Open Source CFD Toolbox
   \\    /   O peration     | Website:  https://openfoam.org
    \\  /    A nd           | Version:  9
     \\/     M anipulation  |
\*---------------------------------------------------------------------------*/
FoamFile
{
    format      ascii;
    class       volVectorField;
    location    "0.34";
    object      U;
}
// * * * * * * * * * * * * * * * * * * * * * * * * * * * * * * * * * * * * * //

dimensions      [0 1 -1 0 0 0 0];

internalField   nonuniform List<vector> 
1000
(
(-0.000102248 -0.000370739 0.00036982)
(-0.00172667 -0.000273466 0.0010381)
(-0.00490711 -0.000216626 0.00128271)
(-0.00807867 -0.000299022 0.00130451)
(-0.0106332 -0.000533777 0.00115978)
(-0.0118296 -0.000889116 0.000802056)
(-0.0109324 -0.00125613 0.000228015)
(-0.00767996 -0.00141915 -0.000386351)
(-0.00279166 -0.00115922 -0.000554001)
(-4.96591e-05 -0.00033121 9.84172e-05)
(-0.000348622 -0.0011981 0.000608487)
(-0.00372401 -0.00129105 0.00208086)
(-0.010014 -0.00126563 0.0025994)
(-0.0161546 -0.00148307 0.00250257)
(-0.0209207 -0.00202382 0.00193424)
(-0.022974 -0.00281993 0.000852285)
(-0.0210303 -0.00361158 -0.000657122)
(-0.014704 -0.00388809 -0.00201727)
(-0.00550392 -0.00316701 -0.00207524)
(-0.000252942 -0.00113728 -0.000140808)
(-0.000488112 -0.00166614 0.000407157)
(-0.00485277 -0.00215853 0.00218089)
(-0.0128716 -0.00225909 0.00280823)
(-0.0206164 -0.00251074 0.0026073)
(-0.0265291 -0.00306315 0.00174506)
(-0.0289446 -0.00385652 0.000191438)
(-0.0262561 -0.00458006 -0.00189907)
(-0.0180361 -0.00473599 -0.00361194)
(-0.00636441 -0.00385925 -0.00336019)
(-4.59636e-05 -0.00163388 -0.000376683)
(-0.000539349 -0.00134357 0.000150374)
(-0.0054153 -0.00185329 0.0019842)
(-0.0143706 -0.00197313 0.00264574)
(-0.0229866 -0.00215501 0.00239314)
(-0.0295177 -0.00253193 0.00138283)
(-0.0320706 -0.00306565 -0.00041985)
(-0.0288648 -0.00351403 -0.002812)
(-0.0195165 -0.00356209 -0.00466982)
(-0.00646392 -0.00291163 -0.00415056)
(0.000246373 -0.00132696 -0.000502559)
(-0.000552721 -0.000505732 3.47149e-07)
(-0.00563862 -0.000714765 0.00183154)
(-0.0149963 -0.000765482 0.00250354)
(-0.0239902 -0.000829206 0.00223497)
(-0.0307875 -0.000957387 0.00116943)
(-0.0333901 -0.00113681 -0.000735212)
(-0.0299334 -0.00128671 -0.00324364)
(-0.0200606 -0.00129441 -0.00514811)
(-0.00639877 -0.00106134 -0.0044928)
(0.000425189 -0.000500113 -0.000549575)
(-0.000552721 0.000505768 3.48123e-07)
(-0.00563862 0.000714788 0.00183154)
(-0.0149963 0.000765499 0.00250355)
(-0.0239902 0.000829219 0.00223497)
(-0.0307875 0.000957397 0.00116943)
(-0.0333901 0.00113682 -0.000735212)
(-0.0299334 0.00128671 -0.00324364)
(-0.0200606 0.00129442 -0.00514811)
(-0.00639877 0.00106134 -0.0044928)
(0.000425189 0.000500115 -0.000549575)
(-0.000539346 0.0013436 0.000150378)
(-0.0054153 0.00185331 0.0019842)
(-0.0143706 0.00197314 0.00264574)
(-0.0229866 0.00215502 0.00239314)
(-0.0295177 0.00253194 0.00138283)
(-0.0320706 0.00306566 -0.000419851)
(-0.0288648 0.00351403 -0.00281201)
(-0.0195165 0.00356209 -0.00466982)
(-0.00646392 0.00291163 -0.00415056)
(0.000246373 0.00132697 -0.00050256)
(-0.000488102 0.00166617 0.000407168)
(-0.00485276 0.00215856 0.0021809)
(-0.0128716 0.0022591 0.00280824)
(-0.0206164 0.00251075 0.0026073)
(-0.0265291 0.00306316 0.00174506)
(-0.0289446 0.00385652 0.000191436)
(-0.0262561 0.00458007 -0.00189908)
(-0.0180361 0.00473599 -0.00361194)
(-0.00636441 0.00385925 -0.0033602)
(-4.59641e-05 0.00163388 -0.000376684)
(-0.000348592 0.00119811 0.000608519)
(-0.003724 0.00129105 0.00208088)
(-0.010014 0.00126564 0.00259941)
(-0.0161546 0.00148308 0.00250258)
(-0.0209207 0.00202383 0.00193424)
(-0.022974 0.00281994 0.000852283)
(-0.0210303 0.00361158 -0.000657125)
(-0.0147041 0.0038881 -0.00201727)
(-0.00550392 0.00316701 -0.00207525)
(-0.000252943 0.00113728 -0.000140809)
(-0.000102207 0.000370703 0.000369863)
(-0.00172667 0.000273442 0.00103813)
(-0.00490715 0.000216624 0.00128272)
(-0.00807871 0.000299024 0.00130451)
(-0.0106332 0.00053378 0.00115978)
(-0.0118296 0.000889119 0.000802054)
(-0.0109324 0.00125614 0.000228013)
(-0.00767997 0.00141915 -0.000386352)
(-0.00279166 0.00115922 -0.000554003)
(-4.9659e-05 0.000331212 9.84168e-05)
(-0.00071179 -0.00106639 0.00310787)
(-0.00430484 -0.00123415 0.00606976)
(-0.0102296 -0.00121186 0.00694728)
(-0.0159881 -0.00124498 0.00670764)
(-0.0205652 -0.00140663 0.0055884)
(-0.0227557 -0.00169977 0.00347608)
(-0.0213425 -0.00202124 0.000460166)
(-0.0156915 -0.00207317 -0.00259977)
(-0.0067393 -0.00152819 -0.00378276)
(-0.000832926 -0.000145656 -0.00130713)
(-0.00197828 -0.00290221 0.00510013)
(-0.0103696 -0.00373727 0.0113021)
(-0.0234488 -0.00381234 0.0130594)
(-0.035804 -0.00393184 0.0119848)
(-0.045142 -0.00434508 0.00866734)
(-0.0491146 -0.00503943 0.00311229)
(-0.0454943 -0.00574882 -0.00406001)
(-0.033334 -0.00574893 -0.0104312)
(-0.0148851 -0.00433889 -0.01144)
(-0.00227009 -0.00102734 -0.00375294)
(-0.00273823 -0.00354309 0.00506597)
(-0.0140524 -0.00499997 0.0124441)
(-0.0314071 -0.00524072 0.0144571)
(-0.0475054 -0.00539956 0.0126908)
(-0.0593373 -0.0058479 0.00782853)
(-0.0639886 -0.00656673 -1.3751e-05)
(-0.0587195 -0.00720472 -0.00971625)
(-0.0425147 -0.00705417 -0.0176707)
(-0.0186162 -0.00545005 -0.017577)
(-0.00266403 -0.00189645 -0.00557476)
(-0.00309512 -0.00269108 0.00455004)
(-0.015957 -0.00397551 0.0121841)
(-0.0356426 -0.00421507 0.0142199)
(-0.0537384 -0.00433063 0.0120492)
(-0.0668496 -0.00463545 0.00633431)
(-0.0717188 -0.00512036 -0.00274744)
(-0.0653534 -0.00548368 -0.0137969)
(-0.0468249 -0.00530511 -0.0224232)
(-0.0199904 -0.00415468 -0.0213482)
(-0.00258393 -0.00164794 -0.00661508)
(-0.00322103 -0.000986882 0.00419369)
(-0.0167196 -0.00148655 0.0118324)
(-0.037403 -0.00158331 0.0138554)
(-0.05635 -0.00162274 0.0115207)
(-0.0699957 -0.00172457 0.00545667)
(-0.0749214 -0.00188654 -0.00413901)
(-0.0680322 -0.0019997 -0.0157247)
(-0.048466 -0.001925 -0.0245792)
(-0.0203834 -0.00151925 -0.023004)
(-0.00246309 -0.000636881 -0.00705056)
(-0.00322103 0.000986908 0.00419369)
(-0.0167196 0.00148656 0.0118324)
(-0.037403 0.00158331 0.0138554)
(-0.05635 0.00162274 0.0115207)
(-0.0699957 0.00172457 0.00545667)
(-0.0749214 0.00188655 -0.00413901)
(-0.0680322 0.00199971 -0.0157247)
(-0.048466 0.00192501 -0.0245792)
(-0.0203834 0.00151926 -0.023004)
(-0.00246309 0.000636884 -0.00705056)
(-0.00309511 0.00269111 0.00455004)
(-0.015957 0.00397551 0.0121841)
(-0.0356426 0.00421507 0.0142199)
(-0.0537384 0.00433063 0.0120492)
(-0.0668496 0.00463545 0.0063343)
(-0.0717188 0.00512037 -0.00274744)
(-0.0653534 0.00548369 -0.0137969)
(-0.0468249 0.00530512 -0.0224232)
(-0.0199904 0.00415469 -0.0213482)
(-0.00258393 0.00164795 -0.00661508)
(-0.00273822 0.00354311 0.00506598)
(-0.0140524 0.00499997 0.0124441)
(-0.0314071 0.00524072 0.0144571)
(-0.0475054 0.00539956 0.0126908)
(-0.0593373 0.00584791 0.00782853)
(-0.0639886 0.00656673 -1.37544e-05)
(-0.0587195 0.00720473 -0.00971625)
(-0.0425147 0.00705418 -0.0176707)
(-0.0186162 0.00545006 -0.017577)
(-0.00266403 0.00189645 -0.00557476)
(-0.00197825 0.0029022 0.00510015)
(-0.0103696 0.00373726 0.0113021)
(-0.0234488 0.00381233 0.0130594)
(-0.035804 0.00393184 0.0119848)
(-0.045142 0.00434509 0.00866734)
(-0.0491146 0.00503943 0.00311228)
(-0.0454943 0.00574882 -0.00406001)
(-0.033334 0.00574894 -0.0104312)
(-0.0148851 0.0043389 -0.01144)
(-0.00227009 0.00102734 -0.00375294)
(-0.000711765 0.00106636 0.00310788)
(-0.00430483 0.00123413 0.00606977)
(-0.0102296 0.00121186 0.00694728)
(-0.0159882 0.00124498 0.00670764)
(-0.0205652 0.00140663 0.00558839)
(-0.0227557 0.00169978 0.00347607)
(-0.0213425 0.00202124 0.000460164)
(-0.0156915 0.00207318 -0.00259977)
(-0.0067393 0.00152819 -0.00378276)
(-0.000832927 0.000145657 -0.00130713)
(-0.001165 -0.00170108 0.00876903)
(-0.00615925 -0.00208012 0.0154268)
(-0.0139449 -0.00205286 0.0170976)
(-0.0214976 -0.00198833 0.0162112)
(-0.0278213 -0.00202342 0.0133182)
(-0.0315378 -0.00221619 0.00817917)
(-0.0308623 -0.00248187 0.000896099)
(-0.0242383 -0.00252905 -0.00678216)
(-0.0118743 -0.00184945 -0.0106209)
(-0.00216758 3.08221e-05 -0.00563938)
(-0.00331227 -0.00444796 0.0144358)
(-0.0156324 -0.00586534 0.0280263)
(-0.0337862 -0.00589816 0.0312112)
(-0.0507972 -0.00571563 0.0280836)
(-0.0641419 -0.00574247 0.0199626)
(-0.0709854 -0.00609155 0.00688504)
(-0.068069 -0.0065271 -0.00995621)
(-0.0528405 -0.00642899 -0.0256798)
(-0.0264001 -0.00481547 -0.0301023)
(-0.00520838 -0.000702638 -0.0135726)
(-0.00466757 -0.00521547 0.0154146)
(-0.0216623 -0.00740217 0.0314902)
(-0.0462835 -0.0075595 0.0349507)
(-0.0688398 -0.00729234 0.0300156)
(-0.0859107 -0.0071845 0.0182432)
(-0.0938945 -0.00733884 -4.31542e-05)
(-0.0888968 -0.00751317 -0.022578)
(-0.0680953 -0.00717952 -0.042173)
(-0.0334921 -0.00554653 -0.0448288)
(-0.0063563 -0.00162088 -0.0189015)
(-0.00534053 -0.00385802 0.0150417)
(-0.024859 -0.00570134 0.0317129)
(-0.0530352 -0.00586354 0.0350681)
(-0.0785347 -0.00562609 0.0290534)
(-0.0974451 -0.00546028 0.0152446)
(-0.105781 -0.0054342 -0.00583976)
(-0.0993352 -0.00539277 -0.0313358)
(-0.0753117 -0.00506246 -0.0525852)
(-0.0364015 -0.00399145 -0.053551)
(-0.00658079 -0.00143715 -0.0218708)
(-0.00558981 -0.00139547 0.0146427)
(-0.0261509 -0.00209913 0.0313692)
(-0.0558426 -0.00216478 0.0346305)
(-0.0825801 -0.00206972 0.0281645)
(-0.102235 -0.00199184 0.0135175)
(-0.110646 -0.00195684 -0.00870676)
(-0.103496 -0.00190888 -0.0353627)
(-0.0780616 -0.00177744 -0.0571828)
(-0.037372 -0.00141848 -0.0572912)
(-0.00656771 -0.000557476 -0.0231029)
(-0.00558981 0.00139549 0.0146427)
(-0.0261509 0.00209913 0.0313692)
(-0.0558426 0.00216478 0.0346305)
(-0.0825801 0.00206972 0.0281645)
(-0.102235 0.00199184 0.0135175)
(-0.110646 0.00195684 -0.00870676)
(-0.103496 0.00190888 -0.0353627)
(-0.0780616 0.00177744 -0.0571828)
(-0.037372 0.00141849 -0.0572912)
(-0.00656771 0.000557479 -0.0231029)
(-0.00534052 0.00385804 0.0150417)
(-0.024859 0.00570134 0.0317129)
(-0.0530352 0.00586354 0.0350681)
(-0.0785347 0.00562609 0.0290534)
(-0.0974451 0.00546028 0.0152446)
(-0.105781 0.0054342 -0.00583976)
(-0.0993352 0.00539278 -0.0313358)
(-0.0753117 0.00506246 -0.0525852)
(-0.0364015 0.00399145 -0.053551)
(-0.00658079 0.00143715 -0.0218708)
(-0.00466757 0.00521549 0.0154146)
(-0.0216623 0.00740216 0.0314902)
(-0.0462835 0.00755949 0.0349507)
(-0.0688398 0.00729234 0.0300156)
(-0.0859107 0.00718451 0.0182432)
(-0.0938945 0.00733885 -4.31552e-05)
(-0.0888968 0.00751317 -0.022578)
(-0.0680953 0.00717952 -0.042173)
(-0.0334921 0.00554653 -0.0448288)
(-0.0063563 0.00162089 -0.0189015)
(-0.00331226 0.00444796 0.0144358)
(-0.0156324 0.00586533 0.0280264)
(-0.0337862 0.00589816 0.0312112)
(-0.0507972 0.00571563 0.0280836)
(-0.0641419 0.00574247 0.0199626)
(-0.0709854 0.00609155 0.00688503)
(-0.068069 0.00652711 -0.00995621)
(-0.0528405 0.00642899 -0.0256798)
(-0.0264001 0.00481547 -0.0301023)
(-0.00520838 0.000702639 -0.0135726)
(-0.00116499 0.00170107 0.008769)
(-0.00615925 0.00208011 0.0154267)
(-0.0139449 0.00205286 0.0170976)
(-0.0214976 0.00198833 0.0162112)
(-0.0278213 0.00202343 0.0133182)
(-0.0315378 0.00221619 0.00817917)
(-0.0308623 0.00248187 0.000896099)
(-0.0242383 0.00252905 -0.00678216)
(-0.0118743 0.00184945 -0.0106209)
(-0.00216758 -3.08224e-05 -0.00563938)
(-0.00161453 -0.00234905 0.0164074)
(-0.0078407 -0.00288254 0.0275624)
(-0.0171587 -0.00275535 0.0299975)
(-0.0263244 -0.00246396 0.0283517)
(-0.0347271 -0.00221259 0.0235945)
(-0.0410661 -0.00214314 0.0150843)
(-0.0428531 -0.00228278 0.00237916)
(-0.0368082 -0.00249575 -0.012293)
(-0.0210658 -0.0020193 -0.0215245)
(-0.005154 8.31436e-05 -0.0140664)
(-0.00458117 -0.00602415 0.027013)
(-0.0204241 -0.00786932 0.0496163)
(-0.0430034 -0.00757432 0.0541867)
(-0.0643259 -0.00666161 0.0486287)
(-0.0822959 -0.00572834 0.0351561)
(-0.0939759 -0.00509697 0.0132926)
(-0.0948104 -0.00487122 -0.0161458)
(-0.0792805 -0.00498512 -0.0462388)
(-0.0451446 -0.00420865 -0.0590584)
(-0.01103 -0.000420103 -0.0318944)
(-0.00647916 -0.00691468 0.0295293)
(-0.0285953 -0.00963105 0.0562563)
(-0.0596418 -0.00931237 0.0611042)
(-0.0881744 -0.00799882 0.0525031)
(-0.111113 -0.00647732 0.0331)
(-0.124597 -0.00511356 0.00279304)
(-0.123282 -0.00422323 -0.0362291)
(-0.101145 -0.00403627 -0.0736616)
(-0.0566584 -0.00376009 -0.0852483)
(-0.0134141 -0.00110025 -0.0427926)
(-0.00743256 -0.005034 0.029587)
(-0.0329488 -0.00727058 0.0574006)
(-0.0686385 -0.00703714 0.0620182)
(-0.100926 -0.00593933 0.0516518)
(-0.126168 -0.00460112 0.0290383)
(-0.140099 -0.00330434 -0.00564727)
(-0.13705 -0.0023983 -0.0492844)
(-0.111051 -0.00219574 -0.0897464)
(-0.0614131 -0.00227406 -0.0996523)
(-0.0141692 -0.000942621 -0.04847)
(-0.0077869 -0.00180466 0.0292863)
(-0.0346983 -0.00264893 0.0572769)
(-0.072344 -0.0025638 0.0617342)
(-0.106175 -0.00214365 0.0506539)
(-0.1323 -0.00162393 0.0267748)
(-0.146275 -0.00111265 -0.00959573)
(-0.142353 -0.000739004 -0.0549643)
(-0.114713 -0.00066033 -0.0964574)
(-0.0630641 -0.000737425 -0.105503)
(-0.0143682 -0.00035768 -0.0507195)
(-0.0077869 0.00180468 0.0292863)
(-0.0346983 0.00264893 0.0572769)
(-0.072344 0.0025638 0.0617342)
(-0.106175 0.00214365 0.0506539)
(-0.1323 0.00162393 0.0267748)
(-0.146275 0.00111265 -0.00959573)
(-0.142353 0.000739005 -0.0549643)
(-0.114713 0.000660332 -0.0964574)
(-0.0630641 0.000737428 -0.105503)
(-0.0143682 0.000357683 -0.0507195)
(-0.00743255 0.00503402 0.029587)
(-0.0329488 0.00727058 0.0574006)
(-0.0686385 0.00703714 0.0620183)
(-0.100926 0.00593933 0.0516518)
(-0.126168 0.00460112 0.0290383)
(-0.140099 0.00330434 -0.00564727)
(-0.13705 0.0023983 -0.0492844)
(-0.111051 0.00219574 -0.0897464)
(-0.0614131 0.00227407 -0.0996523)
(-0.0141692 0.000942624 -0.04847)
(-0.00647915 0.00691469 0.0295293)
(-0.0285953 0.00963104 0.0562563)
(-0.0596418 0.00931237 0.0611042)
(-0.0881743 0.00799882 0.0525031)
(-0.111113 0.00647732 0.0331)
(-0.124597 0.00511356 0.00279305)
(-0.123282 0.00422323 -0.0362291)
(-0.101145 0.00403627 -0.0736616)
(-0.0566584 0.00376009 -0.0852483)
(-0.0134141 0.00110025 -0.0427926)
(-0.00458117 0.00602415 0.027013)
(-0.0204241 0.00786931 0.0496163)
(-0.0430034 0.00757432 0.0541867)
(-0.0643259 0.00666161 0.0486287)
(-0.0822959 0.00572834 0.0351561)
(-0.0939759 0.00509698 0.0132926)
(-0.0948104 0.00487122 -0.0161458)
(-0.0792805 0.00498512 -0.0462388)
(-0.0451446 0.00420865 -0.0590584)
(-0.01103 0.000420105 -0.0318944)
(-0.00161453 0.00234905 0.0164074)
(-0.0078407 0.00288254 0.0275624)
(-0.0171587 0.00275535 0.0299975)
(-0.0263244 0.00246396 0.0283517)
(-0.0347271 0.00221259 0.0235945)
(-0.0410661 0.00214314 0.0150843)
(-0.0428531 0.00228278 0.00237916)
(-0.0368082 0.00249575 -0.012293)
(-0.0210658 0.0020193 -0.0215245)
(-0.005154 -8.31428e-05 -0.0140664)
(-0.00233066 -0.00301393 0.026311)
(-0.00983855 -0.0035987 0.0423729)
(-0.0201917 -0.00315515 0.0451822)
(-0.0304543 -0.00230247 0.0425302)
(-0.0409416 -0.00132317 0.0358757)
(-0.0509788 -0.00051167 0.0237625)
(-0.0575421 -0.000195302 0.00441912)
(-0.0548137 -0.000711802 -0.0203037)
(-0.0370674 -0.00122266 -0.039367)
(-0.0114197 -8.04764e-05 -0.0305669)
(-0.00617968 -0.00759346 0.0430895)
(-0.025439 -0.00959602 0.0758307)
(-0.0515135 -0.00838908 0.0814248)
(-0.0761594 -0.00580622 0.0731957)
(-0.0985587 -0.00263331 0.0543496)
(-0.116426 0.000383903 0.0231251)
(-0.124187 0.00219361 -0.0215476)
(-0.112576 0.00143816 -0.0721954)
(-0.0740482 -0.000820234 -0.102253)
(-0.0220325 -0.000374495 -0.0657286)
(-0.00855186 -0.00855194 0.0475795)
(-0.0354427 -0.0114714 0.0864269)
(-0.0716199 -0.00995689 0.092476)
(-0.104683 -0.00642422 0.0802207)
(-0.13276 -0.00192251 0.0534978)
(-0.152558 0.00256352 0.010865)
(-0.157788 0.00545491 -0.0473613)
(-0.138985 0.00472186 -0.109815)
(-0.0897115 0.00107736 -0.141497)
(-0.026114 -0.000535718 -0.0850434)
(-0.00971196 -0.00614001 0.0482945)
(-0.0406733 -0.00852113 0.0888889)
(-0.0822874 -0.00735137 0.0947343)
(-0.119553 -0.00451642 0.0802894)
(-0.149954 -0.000868103 0.0495899)
(-0.169702 0.00277756 0.00152431)
(-0.172541 0.00507679 -0.0626024)
(-0.149627 0.00443143 -0.129638)
(-0.0957108 0.00140463 -0.160939)
(-0.027598 -0.000358106 -0.0942348)
(-0.0101288 -0.0021842 0.0482048)
(-0.0427214 -0.00307789 0.0891754)
(-0.0865653 -0.00264621 0.094878)
(-0.125473 -0.00158445 0.0796059)
(-0.15665 -0.000214867 0.0474446)
(-0.176155 0.00115054 -0.0025583)
(-0.177844 0.00198564 -0.0687347)
(-0.153293 0.00172353 -0.137296)
(-0.0978024 0.000588626 -0.168321)
(-0.0281225 -0.000116518 -0.0976906)
(-0.0101288 0.00218422 0.0482048)
(-0.0427214 0.00307789 0.0891754)
(-0.0865653 0.0026462 0.094878)
(-0.125473 0.00158445 0.0796059)
(-0.15665 0.000214862 0.0474446)
(-0.176155 -0.00115054 -0.0025583)
(-0.177844 -0.00198564 -0.0687347)
(-0.153293 -0.00172353 -0.137296)
(-0.0978024 -0.000588623 -0.168321)
(-0.0281225 0.000116521 -0.0976906)
(-0.00971196 0.00614003 0.0482945)
(-0.0406733 0.00852112 0.0888889)
(-0.0822874 0.00735136 0.0947343)
(-0.119553 0.00451641 0.0802895)
(-0.149954 0.000868099 0.0495899)
(-0.169702 -0.00277756 0.00152431)
(-0.172541 -0.00507679 -0.0626024)
(-0.149627 -0.00443142 -0.129638)
(-0.0957108 -0.00140462 -0.160939)
(-0.027598 0.000358108 -0.0942348)
(-0.00855185 0.00855195 0.0475795)
(-0.0354427 0.0114714 0.0864269)
(-0.0716199 0.00995688 0.092476)
(-0.104683 0.00642422 0.0802207)
(-0.13276 0.00192251 0.0534978)
(-0.152558 -0.00256352 0.010865)
(-0.157788 -0.0054549 -0.0473613)
(-0.138985 -0.00472185 -0.109815)
(-0.0897115 -0.00107736 -0.141497)
(-0.026114 0.00053572 -0.0850434)
(-0.00617968 0.00759346 0.0430895)
(-0.025439 0.00959602 0.0758307)
(-0.0515135 0.00838907 0.0814248)
(-0.0761594 0.00580622 0.0731957)
(-0.0985587 0.00263332 0.0543496)
(-0.116426 -0.0003839 0.0231251)
(-0.124187 -0.00219361 -0.0215476)
(-0.112576 -0.00143816 -0.0721954)
(-0.0740482 0.000820237 -0.102253)
(-0.0220325 0.000374497 -0.0657286)
(-0.00233066 0.00301393 0.0263109)
(-0.00983856 0.0035987 0.0423729)
(-0.0201917 0.00315515 0.0451822)
(-0.0304543 0.00230247 0.0425302)
(-0.0409417 0.00132317 0.0358757)
(-0.0509788 0.000511671 0.0237625)
(-0.0575421 0.000195303 0.00441912)
(-0.0548137 0.000711803 -0.0203037)
(-0.0370674 0.00122266 -0.039367)
(-0.0114197 8.04775e-05 -0.0305669)
(-0.00386831 -0.00371329 0.0391711)
(-0.0129383 -0.00414363 0.0592733)
(-0.0230361 -0.00298797 0.0610138)
(-0.0327244 -0.00100196 0.05643)
(-0.0440767 0.00146859 0.0475387)
(-0.0579412 0.00396852 0.0317721)
(-0.0714852 0.00551542 0.00520168)
(-0.0761213 0.00468785 -0.0323663)
(-0.0605117 0.00181143 -0.0669668)
(-0.022105 -0.000403908 -0.061148)
(-0.00876888 -0.00913189 0.0632882)
(-0.0313165 -0.0108016 0.105674)
(-0.0583606 -0.007723 0.110736)
(-0.0827872 -0.00205031 0.0990971)
(-0.106233 0.00517691 0.0751323)
(-0.128568 0.0125393 0.0352437)
(-0.144704 0.0171764 -0.0250628)
(-0.142324 0.0151123 -0.101027)
(-0.108025 0.00653264 -0.159761)
(-0.0377878 -0.000976354 -0.124057)
(-0.0114553 -0.0100432 0.0699522)
(-0.0424129 -0.0126502 0.120738)
(-0.080279 -0.0089033 0.126829)
(-0.113033 -0.0016262 0.110854)
(-0.141215 0.00766044 0.0780901)
(-0.1638 0.0168557 0.0251899)
(-0.175662 0.022182 -0.0512874)
(-0.165496 0.0191094 -0.143322)
(-0.122887 0.0083784 -0.209355)
(-0.0425248 -0.000691958 -0.154442)
(-0.0126671 -0.00709744 0.071377)
(-0.0479222 -0.00926474 0.124726)
(-0.0913751 -0.00644803 0.130941)
(-0.12794 -0.000849134 0.112881)
(-0.157451 0.00625737 0.0761786)
(-0.17855 0.0131099 0.0178464)
(-0.186803 0.0167316 -0.0649009)
(-0.172537 0.0140097 -0.162835)
(-0.127533 0.00604516 -0.231182)
(-0.0442976 -0.0003026 -0.167664)
(-0.0130646 -0.0025036 0.0715225)
(-0.0499592 -0.00332144 0.125509)
(-0.0955941 -0.00229854 0.131739)
(-0.13352 -0.000247666 0.112982)
(-0.163283 0.00234187 0.0749841)
(-0.183487 0.00480014 0.0149076)
(-0.19019 0.00602318 -0.0698465)
(-0.174581 0.0049586 -0.169789)
(-0.129203 0.00211954 -0.239029)
(-0.0450564 -6.59713e-05 -0.172491)
(-0.0130646 0.0025036 0.0715225)
(-0.0499592 0.00332144 0.125509)
(-0.0955941 0.00229853 0.131739)
(-0.13352 0.000247658 0.112982)
(-0.163283 -0.00234188 0.0749841)
(-0.183487 -0.00480014 0.0149076)
(-0.19019 -0.00602319 -0.0698465)
(-0.174581 -0.0049586 -0.169789)
(-0.129203 -0.00211953 -0.239029)
(-0.0450564 6.59748e-05 -0.172491)
(-0.0126671 0.00709745 0.071377)
(-0.0479222 0.00926474 0.124726)
(-0.0913751 0.00644802 0.130941)
(-0.12794 0.000849126 0.112881)
(-0.157451 -0.00625738 0.0761787)
(-0.17855 -0.0131099 0.0178464)
(-0.186803 -0.0167316 -0.0649009)
(-0.172537 -0.0140097 -0.162835)
(-0.127533 -0.00604515 -0.231182)
(-0.0442976 0.000302603 -0.167664)
(-0.0114553 0.0100432 0.0699522)
(-0.0424129 0.0126502 0.120738)
(-0.080279 0.00890329 0.126829)
(-0.113033 0.0016262 0.110854)
(-0.141215 -0.00766044 0.0780901)
(-0.1638 -0.0168557 0.0251899)
(-0.175662 -0.022182 -0.0512874)
(-0.165496 -0.0191094 -0.143322)
(-0.122887 -0.0083784 -0.209355)
(-0.0425248 0.00069196 -0.154442)
(-0.00876888 0.00913189 0.0632882)
(-0.0313165 0.0108016 0.105674)
(-0.0583606 0.007723 0.110736)
(-0.0827872 0.00205031 0.0990971)
(-0.106233 -0.00517691 0.0751323)
(-0.128568 -0.0125393 0.0352437)
(-0.144704 -0.0171764 -0.0250628)
(-0.142324 -0.0151123 -0.101027)
(-0.108025 -0.00653264 -0.159761)
(-0.0377878 0.000976354 -0.124057)
(-0.00386832 0.00371329 0.0391711)
(-0.0129383 0.00414363 0.0592733)
(-0.0230361 0.00298797 0.0610138)
(-0.0327244 0.00100196 0.05643)
(-0.0440767 -0.00146859 0.0475387)
(-0.0579412 -0.00396852 0.0317721)
(-0.0714852 -0.00551541 0.00520168)
(-0.0761213 -0.00468785 -0.0323663)
(-0.0605117 -0.00181143 -0.0669668)
(-0.022105 0.000403908 -0.061148)
(-0.00769833 -0.00464282 0.0572581)
(-0.0190767 -0.00469554 0.0769656)
(-0.0255039 -0.00235124 0.0741556)
(-0.0306058 0.00133254 0.0654506)
(-0.0390946 0.00591496 0.0535048)
(-0.0543345 0.0108255 0.0345586)
(-0.0752974 0.0143704 0.00208581)
(-0.0914545 0.0134286 -0.0491172)
(-0.086247 0.00698175 -0.104656)
(-0.035605 -0.00116741 -0.11332)
(-0.01417 -0.0109424 0.0897495)
(-0.0399092 -0.0117654 0.13678)
(-0.0617353 -0.00582515 0.13696)
(-0.0777262 0.00400071 0.119902)
(-0.0934619 0.0162764 0.091387)
(-0.112648 0.0289161 0.0461307)
(-0.133534 0.0370875 -0.0245473)
(-0.143366 0.0333062 -0.124465)
(-0.12756 0.015798 -0.22191)
(-0.0497218 -0.00362731 -0.213326)
(-0.01695 -0.0115834 0.0982078)
(-0.0507943 -0.013429 0.156027)
(-0.0825812 -0.00662932 0.158207)
(-0.104694 0.00513102 0.137555)
(-0.121723 0.0196263 0.101004)
(-0.136963 0.0336311 0.0434985)
(-0.149834 0.041139 -0.0430145)
(-0.150423 0.0347596 -0.161271)
(-0.131348 0.0149231 -0.273367)
(-0.0510592 -0.00329833 -0.254102)
(-0.0179958 -0.00800045 0.0999936)
(-0.0556383 -0.00967797 0.161197)
(-0.0922303 -0.00476763 0.164162)
(-0.116768 0.00390392 0.142216)
(-0.133195 0.0144709 0.102704)
(-0.144805 0.0242417 0.0408289)
(-0.152495 0.0286948 -0.0511008)
(-0.148997 0.0231722 -0.175927)
(-0.13097 0.00934251 -0.293685)
(-0.0517795 -0.0019286 -0.270562)
(-0.0182682 -0.00279022 0.100212)
(-0.0572239 -0.00344245 0.162287)
(-0.0955325 -0.00169514 0.165553)
(-0.120774 0.00141387 0.143309)
(-0.136661 0.00517302 0.103007)
(-0.14663 0.00856759 0.0399093)
(-0.152432 0.00996546 -0.0536844)
(-0.14801 0.00785715 -0.180904)
(-0.131217 0.00307982 -0.300925)
(-0.0524257 -0.00058673 -0.27659)
(-0.0182682 0.00279022 0.100212)
(-0.0572239 0.00344245 0.162287)
(-0.0955325 0.00169513 0.165553)
(-0.120774 -0.00141388 0.143309)
(-0.136661 -0.00517303 0.103007)
(-0.14663 -0.0085676 0.0399093)
(-0.152432 -0.00996546 -0.0536844)
(-0.14801 -0.00785715 -0.180904)
(-0.131217 -0.00307981 -0.300925)
(-0.0524257 0.000586735 -0.27659)
(-0.0179958 0.00800046 0.0999936)
(-0.0556383 0.00967797 0.161197)
(-0.0922303 0.00476762 0.164162)
(-0.116768 -0.00390393 0.142216)
(-0.133195 -0.0144709 0.102704)
(-0.144805 -0.0242417 0.0408289)
(-0.152495 -0.0286948 -0.0511008)
(-0.148997 -0.0231722 -0.175927)
(-0.13097 -0.0093425 -0.293685)
(-0.0517795 0.00192861 -0.270562)
(-0.01695 0.0115834 0.0982078)
(-0.0507943 0.0134289 0.156027)
(-0.0825812 0.00662932 0.158207)
(-0.104694 -0.00513102 0.137555)
(-0.121723 -0.0196263 0.101004)
(-0.136963 -0.0336311 0.0434985)
(-0.149834 -0.041139 -0.0430145)
(-0.150423 -0.0347596 -0.161271)
(-0.131348 -0.0149231 -0.273367)
(-0.0510592 0.00329833 -0.254102)
(-0.01417 0.0109424 0.0897495)
(-0.0399092 0.0117654 0.13678)
(-0.0617353 0.00582515 0.13696)
(-0.0777262 -0.00400072 0.119902)
(-0.0934619 -0.0162764 0.091387)
(-0.112648 -0.0289161 0.0461307)
(-0.133535 -0.0370875 -0.0245473)
(-0.143366 -0.0333062 -0.124465)
(-0.12756 -0.015798 -0.22191)
(-0.0497218 0.00362731 -0.213326)
(-0.00769833 0.00464283 0.0572581)
(-0.0190768 0.00469554 0.0769656)
(-0.0255039 0.00235124 0.0741556)
(-0.0306058 -0.00133254 0.0654506)
(-0.0390947 -0.00591496 0.0535048)
(-0.0543345 -0.0108255 0.0345586)
(-0.0752974 -0.0143704 0.00208581)
(-0.0914545 -0.0134286 -0.0491172)
(-0.086247 -0.00698175 -0.104656)
(-0.035605 0.00116742 -0.11332)
(-0.0169768 -0.00643908 0.0815679)
(-0.0308824 -0.00627012 0.0913208)
(-0.0233704 -0.00268912 0.0793737)
(-0.0154834 0.00272674 0.0638193)
(-0.0136841 0.00919009 0.0482579)
(-0.0234961 0.0163125 0.027743)
(-0.0480048 0.0222075 -0.0072319)
(-0.0768823 0.0215814 -0.0687481)
(-0.0961648 0.010786 -0.14759)
(-0.0416407 -0.00538677 -0.192175)
(-0.0270385 -0.0142058 0.120855)
(-0.0558466 -0.0145996 0.161897)
(-0.0558465 -0.0061491 0.151535)
(-0.047165 0.00699006 0.125975)
(-0.039856 0.0227385 0.0941473)
(-0.0409078 0.0391761 0.0500084)
(-0.0557473 0.0511721 -0.0192085)
(-0.0746142 0.0471821 -0.130838)
(-0.0981477 0.0206446 -0.267383)
(-0.0366109 -0.0126615 -0.321144)
(-0.0301758 -0.0141823 0.129642)
(-0.0662291 -0.0159101 0.184222)
(-0.0733012 -0.00695392 0.177258)
(-0.0660676 0.00746749 0.149374)
(-0.0546913 0.0246242 0.111564)
(-0.0459365 0.041265 0.0580389)
(-0.0477512 0.0511781 -0.0233649)
(-0.0544082 0.0436382 -0.151931)
(-0.0805332 0.0160796 -0.308757)
(-0.0289158 -0.0106855 -0.362554)
(-0.0310224 -0.00944596 0.131172)
(-0.0699094 -0.0111305 0.189981)
(-0.0802269 -0.00497147 0.184739)
(-0.0735207 0.00513102 0.156715)
(-0.0597722 0.0170621 0.117336)
(-0.0456904 0.0281283 0.060907)
(-0.0411592 0.0337456 -0.0244417)
(-0.0433598 0.0273187 -0.159165)
(-0.0736022 0.00924248 -0.323763)
(-0.0274628 -0.0061004 -0.378011)
(-0.0311339 -0.00323489 0.131261)
(-0.0707892 -0.00390241 0.191091)
(-0.0820833 -0.00176269 0.1865)
(-0.0753911 0.00177329 0.15869)
(-0.0606332 0.00592098 0.119094)
(-0.0445903 0.00968252 0.0619475)
(-0.0381254 0.0114223 -0.0246853)
(-0.0396748 0.00901705 -0.161804)
(-0.0724149 0.00295656 -0.329363)
(-0.0277987 -0.00186527 -0.383746)
(-0.0311339 0.00323489 0.131261)
(-0.0707892 0.00390241 0.191091)
(-0.0820833 0.00176268 0.1865)
(-0.0753911 -0.0017733 0.15869)
(-0.0606332 -0.00592099 0.119094)
(-0.0445903 -0.00968252 0.0619475)
(-0.0381254 -0.0114223 -0.0246853)
(-0.0396748 -0.00901705 -0.161804)
(-0.0724149 -0.00295655 -0.329363)
(-0.0277987 0.00186528 -0.383746)
(-0.0310224 0.00944596 0.131172)
(-0.0699094 0.0111305 0.189981)
(-0.0802269 0.00497146 0.184739)
(-0.0735207 -0.00513103 0.156715)
(-0.0597722 -0.0170621 0.117336)
(-0.0456904 -0.0281283 0.060907)
(-0.0411592 -0.0337456 -0.0244417)
(-0.0433598 -0.0273187 -0.159165)
(-0.0736022 -0.00924248 -0.323763)
(-0.0274628 0.0061004 -0.378011)
(-0.0301758 0.0141823 0.129642)
(-0.0662291 0.0159101 0.184222)
(-0.0733012 0.00695391 0.177258)
(-0.0660676 -0.0074675 0.149374)
(-0.0546913 -0.0246242 0.111564)
(-0.0459365 -0.041265 0.0580389)
(-0.0477512 -0.0511781 -0.0233649)
(-0.0544082 -0.0436382 -0.151931)
(-0.0805332 -0.0160796 -0.308757)
(-0.0289158 0.0106855 -0.362554)
(-0.0270385 0.0142058 0.120855)
(-0.0558466 0.0145996 0.161897)
(-0.0558465 0.0061491 0.151535)
(-0.047165 -0.00699006 0.125975)
(-0.039856 -0.0227385 0.0941473)
(-0.0409078 -0.0391761 0.0500084)
(-0.0557473 -0.0511721 -0.0192085)
(-0.0746142 -0.0471821 -0.130838)
(-0.0981477 -0.0206446 -0.267383)
(-0.0366109 0.0126615 -0.321144)
(-0.0169768 0.00643908 0.0815679)
(-0.0308824 0.00627012 0.0913208)
(-0.0233704 0.00268912 0.0793737)
(-0.0154834 -0.00272675 0.0638193)
(-0.0136841 -0.00919009 0.0482579)
(-0.0234961 -0.0163125 0.027743)
(-0.0480048 -0.0222075 -0.00723191)
(-0.0768823 -0.0215814 -0.0687481)
(-0.0961648 -0.010786 -0.14759)
(-0.0416407 0.00538677 -0.192175)
(-0.0240207 -0.0110709 0.151001)
(-0.0217565 -0.0112005 0.0985725)
(0.0242807 -0.00673068 0.0631509)
(0.0568735 -0.000464371 0.0421108)
(0.077348 0.00647865 0.0262973)
(0.0806836 0.0141392 0.00913378)
(0.0600615 0.021553 -0.018975)
(0.0240128 0.0213118 -0.0762135)
(-0.0426192 0.00628465 -0.171402)
(-0.00697223 -0.0169636 -0.25794)
(-0.0431741 -0.0222753 0.210253)
(-0.0450467 -0.0241801 0.168184)
(0.0161274 -0.0153182 0.125411)
(0.0694547 -0.00212024 0.0937411)
(0.112978 0.0131564 0.0655424)
(0.141457 0.0294736 0.0333374)
(0.141203 0.0444906 -0.0149555)
(0.124069 0.0438636 -0.105091)
(0.0358884 0.0125994 -0.253928)
(0.0422832 -0.0300386 -0.367681)
(-0.0485316 -0.0195964 0.220061)
(-0.0549271 -0.0238518 0.187142)
(0.0051058 -0.0161324 0.146992)
(0.0627079 -0.00345563 0.114355)
(0.114727 0.0117995 0.0828463)
(0.156649 0.0274217 0.0451261)
(0.17027 0.039995 -0.0100983)
(0.16753 0.0370409 -0.109161)
(0.0751564 0.00848561 -0.273762)
(0.0612371 -0.0208927 -0.393833)
(-0.0493679 -0.0121857 0.22078)
(-0.057249 -0.0157389 0.190655)
(0.00152895 -0.0109575 0.152288)
(0.0599828 -0.00271631 0.120346)
(0.114627 0.00728322 0.0884483)
(0.16139 0.0173469 0.0490921)
(0.179704 0.0247603 -0.0086946)
(0.181137 0.0221215 -0.110973)
(0.0847554 0.00525528 -0.280866)
(0.0641891 -0.0107111 -0.402816)
(-0.0492559 -0.00404008 0.220411)
(-0.0572695 -0.00536614 0.190812)
(0.00125306 -0.0037796 0.15309)
(0.0600144 -0.000995013 0.121615)
(0.11541 0.00238773 0.0898668)
(0.1635 0.00576498 0.0501654)
(0.182839 0.00814829 -0.00853586)
(0.184571 0.00719054 -0.112187)
(0.085735 0.00179518 -0.283921)
(0.0638041 -0.00312989 -0.406127)
(-0.0492559 0.00404008 0.220411)