/*--------------------------------*- C++ -*----------------------------------*\
  =========                 |
  \\      /  F ield         | OpenFOAM: The Open Source CFD Toolbox
   \\    /   O peration     | Website:  https://openfoam.org
    \\  /    A nd           | Version:  9
     \\/     M anipulation  |
\*---------------------------------------------------------------------------*/
FoamFile
{
    format      ascii;
    class       volScalarField;
    location    "1";
    object      p;
}
// * * * * * * * * * * * * * * * * * * * * * * * * * * * * * * * * * * * * * //

dimensions      [0 2 -2 0 0 0 0];

internalField   nonuniform List<scalar> 
1000
(
-6.60093e-06
-0.000504946
-0.000204675
0.000845854
0.00272571
0.00530908
0.00813297
0.0104308
0.0114977
0.010637
0.000162313
-0.000752717
-0.000560999
0.00053684
0.00260175
0.0054878
0.00865628
0.0111732
0.0121812
0.0107677
0.000955639
-0.000239257
-8.68287e-05
0.0011133
0.00342999
0.00668885
0.0102409
0.0129017
0.013657
0.0114956
0.00181637
0.00043364
0.000571913
0.00187424
0.00442114
0.00802139
0.0118398
0.0145531
0.0150427
0.0122832
0.00235794
0.000885969
0.00102294
0.00238591
0.00505937
0.00883409
0.0127985
0.0155203
0.0158498
0.0127729
0.00235786
0.000885922
0.00102291
0.0023859
0.00505938
0.0088341
0.0127985
0.0155203
0.0158498
0.0127729
0.00181608
0.00043347
0.000571826
0.00187421
0.00442115
0.00802141
0.0118399
0.0145532
0.0150427
0.0122832
0.000954972
-0.000239624
-8.70267e-05
0.00111324
0.00343001
0.00668889
0.0102409
0.0129017
0.013657
0.0114956
0.000161073
-0.000753299
-0.000561353
0.000536701
0.00260173
0.00548784
0.00865634
0.0111733
0.0121813
0.0107677
-9.61177e-06
-0.000505879
-0.000205237
0.000845638
0.00272568
0.00530912
0.00813305
0.0104309
0.0114978
0.0106371
0.000407948
-2.99028e-05
0.000288569
0.00120505
0.00282944
0.00511675
0.00770094
0.00991002
0.0109982
0.00984966
0.00094886
1.60712e-05
0.000251923
0.00116111
0.00282319
0.00520681
0.00793628
0.0102722
0.0113203
0.00951518
0.00218738
0.000837304
0.00100107
0.00190399
0.00363416
0.00616768
0.00913198
0.0115455
0.0123853
0.00982438
0.00336843
0.00169608
0.00179388
0.00269257
0.00449551
0.00719692
0.0103335
0.012776
0.0134049
0.01029
0.00407334
0.00222825
0.00228851
0.00318458
0.00502885
0.00783169
0.0110549
0.0134984
0.014002
0.0106126
0.0040733
0.00222822
0.0022885
0.00318458
0.00502885
0.0078317
0.011055
0.0134984
0.014002
0.0106126
0.00336825
0.00169597
0.00179383
0.00269256
0.00449553
0.00719695
0.0103336
0.012776
0.0134049
0.0102901
0.00218699
0.000837069
0.00100096
0.00190396
0.00363418
0.00616772
0.00913204
0.0115456
0.0123854
0.00982444
0.000948149
1.56781e-05
0.000251705
0.00116104
0.0028232
0.00520686
0.00793635
0.0102723
0.0113204
0.00951525
0.00040685
-3.04914e-05
0.000288224
0.00120492
0.00282943
0.0051168
0.00770102
0.00991011
0.0109983
0.0098498
-0.000945368
-0.00151728
-0.00132571
-0.000621095
0.000818154
0.00312377
0.00607572
0.00898397
0.0107497
0.00943488
-7.91118e-05
-0.00131537
-0.0012094
-0.000506207
0.000975296
0.00340348
0.00655513
0.00963631
0.0113273
0.00886119
0.0016863
-0.000151099
-0.000180762
0.000421556
0.00187378
0.00440609
0.00777415
0.0109868
0.0124783
0.00896107
0.00330143
0.00100038
0.000837611
0.00133946
0.00276992
0.00540346
0.00890676
0.0121686
0.0134572
0.00923702
0.00424345
0.00169411
0.00145271
0.00189524
0.00331424
0.00599474
0.00956132
0.0128275
0.0139966
0.00945008
0.00424342
0.0016941
0.00145271
0.00189524
0.00331425
0.00599475
0.00956134
0.0128275
0.0139966
0.0094501
0.00330134
0.00100033
0.000837598
0.00133947
0.00276994
0.00540349
0.0089068
0.0121686
0.0134573
0.00923705
0.00168611
-0.000151223
-0.000180812
0.000421557
0.00187381
0.00440614
0.00777422
0.0109869
0.0124783
0.00896113
-7.94704e-05
-0.00131558
-0.0012095
-0.000506229
0.000975331
0.00340355
0.00655521
0.0096364
0.0113274
0.00886128
-0.000945944
-0.00151761
-0.00132588
-0.000621144
0.00081818
0.00312383
0.0060758
0.00898404
0.0107497
0.00943499
-0.00446254
-0.00516237
-0.00515294
-0.0047353
-0.00350092
-0.00100973
0.00280047
0.00730269
0.0107762
0.00987779
-0.00327395
-0.00478829
-0.00486661
-0.00443202
-0.00312256
-0.000451063
0.00366372
0.00849919
0.0119016
0.00926246
-0.000978003
-0.00327549
-0.00360016
-0.00342599
-0.00231604
0.000363357
0.00463421
0.0097339
0.0130715
0.00925841
0.00108014
-0.00181865
-0.00238557
-0.00247001
-0.00155956
0.00104585
0.00543399
0.0106611
0.013898
0.00939029
0.00226527
-0.000953914
-0.00166363
-0.00189874
-0.00109837
0.00146665
0.00587067
0.0111288
0.0143027
0.00950368
0.00226526
-0.000953917
-0.00166363
-0.00189874
-0.00109836
0.00146666
0.00587069
0.0111288
0.0143027
0.0095037
0.00108011
-0.00181865
-0.00238556
-0.00246999
-0.00155953
0.00104588
0.00543403
0.0106612
0.013898
0.00939033
-0.000978082
-0.00327553
-0.00360016
-0.00342597
-0.002316
0.000363407
0.00463427
0.00973396
0.0130715
0.00925848
-0.00327409
-0.00478836
-0.00486663
-0.004432
-0.0031225
-0.000450996
0.00366379
0.00849927
0.0119017
0.00926254
-0.00446276
-0.00516249
-0.00515299
-0.00473529
-0.00350087
-0.00100965
0.00280056
0.00730278
0.0107762
0.00987788
-0.0108243
-0.0114784
-0.01157
-0.0114481
-0.010475
-0.00771677
-0.00254685
0.00472075
0.0115589
0.0127603
-0.00936038
-0.0109509
-0.0111505
-0.0110301
-0.00999082
-0.00710943
-0.00163867
0.00618313
0.0131891
0.0125338
-0.00665485
-0.00919247
-0.00981752
-0.010231
-0.0097349
-0.0071808
-0.00172279
0.00654135
0.0138732
0.0125358
-0.00427449
-0.00753059
-0.00855739
-0.00946756
-0.00944523
-0.00717476
-0.00181529
0.0066676
0.0141917
0.0125839
-0.00292096
-0.00655622
-0.00781398
-0.00900065
-0.00923498
-0.00715774
-0.00185068
0.00669719
0.0142919
0.0126119
-0.00292096
-0.00655622
-0.00781397
-0.00900064
-0.00923497
-0.00715773
-0.00185067
0.00669721
0.0142919
0.0126119
-0.00427448
-0.00753057
-0.00855735
-0.00946753
-0.00944519
-0.00717472
-0.00181525
0.00666764
0.0141917
0.0125839
-0.00665485
-0.00919245
-0.00981748
-0.0102309
-0.00973484
-0.00718074
-0.00172273
0.00654142
0.0138733
0.0125359
-0.00936039
-0.0109509
-0.0111505
-0.0110301
-0.00999075
-0.00710936
-0.00163859
0.00618323
0.0131892
0.0125339
-0.0108243
-0.0114784
-0.01157
-0.011448
-0.0104749
-0.00771669
-0.00254675
0.00472085
0.011559
0.0127604
-0.0206432
-0.0207107
-0.0205298
-0.0205431
-0.0198086
-0.016807
-0.00989139
0.00146149
0.014315
0.0209813
-0.0189391
-0.0200848
-0.0200956
-0.0202392
-0.0197021
-0.0169789
-0.010247
0.00162895
0.0151353
0.0213335
-0.0159667
-0.0182023
-0.0188916
-0.0199768
-0.0205056
-0.01874
-0.0125098
-0.000110755
0.0144873
0.0213431
-0.0134165
-0.0164516
-0.017736
-0.0196169
-0.0209869
-0.0199501
-0.014086
-0.00143659
0.0138097
0.0212542
-0.0119901
-0.0154391
-0.0170525
-0.0193512
-0.0211363
-0.0204127
-0.0147866
-0.00207797
0.0134348
0.0211754
-0.0119901
-0.0154391
-0.0170525
-0.0193512
-0.0211363
-0.0204127
-0.0147865
-0.00207795
0.0134348
0.0211754
-0.0134164
-0.0164516
-0.0177359
-0.0196169
-0.0209868
-0.0199501
-0.014086
-0.00143655
0.0138097
0.0212542
-0.0159666
-0.0182023
-0.0188915
-0.0199767
-0.0205055
-0.0187399
-0.0125097
-0.000110689
0.0144874
0.0213432
-0.0189391
-0.0200847
-0.0200955
-0.0202391
-0.019702
-0.0169788
-0.0102469
0.00162904
0.0151354
0.0213336
-0.0206431
-0.0207107
-0.0205298
-0.020543
-0.0198085
-0.0168069
-0.00989129
0.00146159
0.0143151
0.0209814
-0.0349837
-0.0327237
-0.0312722
-0.0308722
-0.0302275
-0.0270764
-0.0185113
-0.00187798
0.0200829
0.0388219
-0.0328405
-0.03195
-0.0309258
-0.0310282
-0.031145
-0.0291465
-0.0218427
-0.00539884
0.0177315
0.038929
-0.0295823
-0.0298765
-0.0298297
-0.0313664
-0.0332201
-0.0330379
-0.0270642
-0.0103136
0.0146495
0.0387684
-0.0269195
-0.0280263
-0.0287467
-0.0313622
-0.0344226
-0.0353965
-0.030207
-0.0132789
0.0127273
0.0386283
-0.0254708
-0.0269863
-0.0281119
-0.0312557
-0.0348664
-0.0363413
-0.0314997
-0.0145308
0.0118937
0.038546
-0.0254708
-0.0269863
-0.0281119
-0.0312557
-0.0348664
-0.0363412
-0.0314997
-0.0145307
0.0118937
0.038546
-0.0269195
-0.0280263
-0.0287466
-0.0313621
-0.0344226
-0.0353964
-0.030207
-0.0132788
0.0127274
0.0386284
-0.0295823
-0.0298765
-0.0298296
-0.0313663
-0.0332201
-0.0330378
-0.0270641
-0.0103135
0.0146495
0.0387685
-0.0328404
-0.0319499
-0.0309257
-0.0310281
-0.0311449
-0.0291464
-0.0218427
-0.00539876
0.0177315
0.0389291
-0.0349836
-0.0327236
-0.0312721
-0.0308721
-0.0302274
-0.0270763
-0.0185112
-0.00187789
0.020083
0.038822
-0.0576413
-0.0470757
-0.0422976
-0.0402268
-0.0391173
-0.0356045
-0.0257299
-0.00318015
0.0302434
0.0731616
-0.0543775
-0.0456049
-0.0416918
-0.040906
-0.0413858
-0.0401203
-0.0331914
-0.012185
0.0224712
0.0736262
-0.0502154
-0.0426763
-0.0399487
-0.0411588
-0.0440267
-0.045201
-0.0403584
-0.0192569
0.0177557
0.0750766
-0.0471213
-0.0403402
-0.0384399
-0.0409402
-0.0452962
-0.0478421
-0.0440652
-0.022654
0.0157765
0.0764413
-0.0455338
-0.0391171
-0.0376367
-0.0407267
-0.0457074
-0.0487917
-0.0454567
-0.0238942
0.0151461
0.0771024
-0.0455338
-0.0391171
-0.0376367
-0.0407267
-0.0457074
-0.0487916
-0.0454567
-0.0238942
0.0151461
0.0771024
-0.0471213
-0.0403401
-0.0384399
-0.0409402
-0.0452961
-0.0478421
-0.0440651
-0.022654
0.0157766
0.0764413
-0.0502153
-0.0426763
-0.0399486
-0.0411587
-0.0440266
-0.0452009
-0.0403584
-0.0192568
0.0177557
0.0750767
-0.0543774
-0.0456048
-0.0416917
-0.0409059
-0.0413857
-0.0401202
-0.0331913
-0.0121849
0.0224713
0.0736263
-0.0576412
-0.0470757
-0.0422975
-0.0402268
-0.0391172
-0.0356043
-0.0257298
-0.00318006
0.0302435
0.0731616
-0.0891379
-0.061292
-0.0520334
-0.0464211
-0.0436938
-0.0391153
-0.0264196
0.0046267
0.0516234
0.150858
-0.0814669
-0.0573106
-0.050605
-0.0474198
-0.0470713
-0.0452327
-0.0362575
-0.00615534
0.045261
0.162512
-0.0750524
-0.0524731
-0.0473297
-0.0466796
-0.0492674
-0.0500824
-0.0431728
-0.0114372
0.0463298
0.17159
-0.0710512
-0.0491672
-0.0449178
-0.0457928
-0.050079
-0.0523579
-0.0462686
-0.0132397
0.0476462
0.17731
-0.0692024
-0.0475851
-0.0437568
-0.0453049
-0.050293
-0.0531525
-0.0473516
-0.0138033
0.0483707
0.179797
-0.0692024
-0.0475851
-0.0437568
-0.0453049
-0.0502929
-0.0531525
-0.0473516
-0.0138033
0.0483707
0.179797
-0.0710511
-0.0491671
-0.0449177
-0.0457928
-0.050079
-0.0523578
-0.0462686
-0.0132397
0.0476462
0.17731
-0.0750523
-0.052473
-0.0473296
-0.0466795
-0.0492673
-0.0500823
-0.0431727
-0.0114371
0.0463299
0.17159
-0.0814668
-0.0573106
-0.0506049
-0.0474197
-0.0470712
-0.0452326
-0.0362574
-0.00615526
0.045261
0.162512
-0.0891378
-0.0612919
-0.0520333
-0.0464211
-0.0436937
-0.0391152
-0.0264195
0.00462678
0.0516235
0.150858
-0.199364
-0.0739389
-0.0489337
-0.0404842
-0.0362029
-0.029442
-0.0125176
0.0327391
0.119002
0.324645
-0.18705
-0.0611782
-0.0410982
-0.0370839
-0.0364782
-0.0330534
-0.0185222
0.0295744
0.12952
0.359296
-0.178127
-0.0522171
-0.0344104
-0.0334921
-0.0360871
-0.0350437
-0.0214931
0.0297029
0.138858
0.380179
-0.172971
-0.0471412
-0.03036
-0.0311672
-0.0355945
-0.0358623
-0.0226342
0.0301999
0.143493
0.390221
-0.170706
-0.044958
-0.0286047
-0.0301383
-0.0353359
-0.036161
-0.0230652
0.0304186
0.145262
0.394049
-0.170706
-0.044958
-0.0286047
-0.0301383
-0.0353359
-0.036161
-0.0230652
0.0304186
0.145262
0.394049
-0.172971
-0.0471412
-0.03036
-0.0311672
-0.0355944
-0.0358623
-0.0226342
0.0301999
0.143493
0.390221
-0.178127
-0.052217
-0.0344103
-0.033492
-0.0360871
-0.0350436
-0.021493
0.0297029
0.138858
0.380179
-0.18705
-0.0611782
-0.0410981
-0.0370838
-0.0364781
-0.0330533
-0.0185222
0.0295744
0.12952
0.359296
-0.199364
-0.0739388
-0.0489336
-0.0404841
-0.0362028
-0.0294419
-0.0125175
0.0327391
0.119002
0.324645
)
;

boundaryField
{
    top
    {
        type            zeroGradient;
    }
    others
    {
        type            zeroGradient;
    }
}


// ************************************************************************* //
