/*--------------------------------*- C++ -*----------------------------------*\
  =========                 |
  \\      /  F ield         | OpenFOAM: The Open Source CFD Toolbox
   \\    /   O peration     | Website:  https://openfoam.org
    \\  /    A nd           | Version:  9
     \\/     M anipulation  |
\*---------------------------------------------------------------------------*/
FoamFile
{
    format      ascii;
    class       surfaceScalarField;
    location    "1";
    object      phi;
}
// * * * * * * * * * * * * * * * * * * * * * * * * * * * * * * * * * * * * * //

dimensions      [0 3 -1 0 0 0 0];

internalField   nonuniform List<scalar> 
2700
(
-5.60539e-08
-1.11055e-07
1.67286e-07
-2.98728e-07
-1.25875e-07
3.6855e-07
-6.24181e-07
-1.26538e-07
4.51992e-07
-9.47156e-07
-1.4771e-07
4.70684e-07
-1.17663e-06
-2.00755e-07
4.30232e-07
-1.21173e-06
-2.79884e-07
3.14983e-07
-9.85225e-07
-3.56488e-07
1.2998e-07
-5.41431e-07
-3.79742e-07
-6.40518e-08
-1.02618e-07
-3.02724e-07
-1.36089e-07
-1.00297e-07
-2.32086e-09
-1.55728e-07
-2.42973e-07
2.87647e-07
-6.8648e-07
-3.24844e-07
7.29721e-07
-1.36241e-06
-3.46413e-07
8.958e-07
-1.99828e-06
-3.86677e-07
8.74845e-07
-2.41781e-06
-4.70102e-07
6.88868e-07
-2.44205e-06
-5.85004e-07
3.29367e-07
-1.9619e-06
-6.82804e-07
-1.53842e-07
-1.08283e-06
-6.88469e-07
-5.70341e-07
-2.33235e-07
-5.4413e-07
-6.08188e-07
-2.20518e-07
-1.13015e-07
-2.37104e-07
-2.66354e-07
2.60486e-07
-9.68328e-07
-3.80341e-07
7.8672e-07
-1.8724e-06
-4.13863e-07
9.71526e-07
-2.69634e-06
-4.55006e-07
8.9227e-07
-3.20888e-06
-5.31219e-07
5.73653e-07
-3.18783e-06
-6.31973e-07
2.5914e-08
-2.50522e-06
-7.0367e-07
-6.61744e-07
-1.329e-06
-6.88938e-07
-1.17575e-06
-2.48459e-07
-5.43014e-07
-1.08166e-06
-2.3903e-07
-2.29947e-07
-2.94228e-07
-1.69314e-07
1.97188e-07
-1.16016e-06
-2.48679e-07
7.34265e-07
-2.21257e-06
-2.72721e-07
9.11269e-07
-3.15148e-06
-2.97687e-07
7.81588e-07
-3.71023e-06
-3.40766e-07
3.68303e-07
-3.62977e-06
-3.94941e-07
-3.17493e-07
-2.79585e-06
-4.31212e-07
-1.10638e-06
-1.4231e-06
-4.15985e-07
-1.6457e-06
-2.19216e-07
-3.27799e-07
-1.4191e-06
-1.5004e-07
-3.08206e-07
-3.2426e-07
4.62879e-12
1.5494e-07
-1.25852e-06
3.80377e-12
6.85577e-07
-2.38458e-06
2.81893e-12
8.53333e-07
-3.37768e-06
2.0388e-12
6.95414e-07
-3.9526e-06
1.42744e-12
2.34151e-07
-3.83692e-06
9.77994e-13
-5.10623e-07
-2.92045e-06
6.40852e-13
-1.34768e-06
-1.4502e-06
3.99027e-13
-1.88623e-06
-1.94377e-07
2.29592e-13
-1.58363e-06
1.53553e-13
-3.44418e-07
-3.2426e-07
1.69325e-07
1.5494e-07
-1.25852e-06
2.48688e-07
6.85576e-07
-2.38458e-06
2.72727e-07
8.53333e-07
-3.37768e-06
2.97691e-07
6.95414e-07
-3.9526e-06
3.40769e-07
2.34151e-07
-3.83692e-06
3.94942e-07
-5.10623e-07
-2.92045e-06
4.31214e-07
-1.34768e-06
-1.4502e-06
4.15985e-07
-1.88623e-06
-1.94377e-07
3.27799e-07
-1.58363e-06
1.5004e-07
-3.44418e-07
-2.94231e-07
2.66369e-07
1.97186e-07
-1.16016e-06
3.80352e-07
7.34264e-07
-2.21257e-06
4.1387e-07
9.11269e-07
-3.15148e-06
4.5501e-07
7.81588e-07
-3.71023e-06
5.31222e-07
3.68303e-07
-3.62977e-06
6.31975e-07
-3.17493e-07
-2.79585e-06
7.03671e-07
-1.10638e-06
-1.4231e-06
6.88939e-07
-1.6457e-06
-2.19217e-07
5.43014e-07
-1.4191e-06
2.3903e-07
-3.08206e-07
-2.37111e-07
2.43e-07
2.6048e-07
-9.68334e-07
3.24858e-07
7.86717e-07
-1.87241e-06
3.4642e-07
9.71524e-07
-2.69635e-06
3.86681e-07
8.92269e-07
-3.20888e-06
4.70104e-07
5.73653e-07
-3.18783e-06
5.85005e-07
2.59138e-08
-2.50522e-06
6.82805e-07
-6.61744e-07
-1.329e-06
6.88469e-07
-1.17575e-06
-2.4846e-07
5.44131e-07
-1.08166e-06
2.20518e-07
-2.29947e-07
-1.55746e-07
1.11117e-07
2.87629e-07
-6.86493e-07
1.25891e-07
7.29713e-07
-1.36241e-06
1.26544e-07
8.95797e-07
-1.99829e-06
1.47713e-07
8.74843e-07
-2.41781e-06
2.00756e-07
6.88867e-07
-2.44206e-06
2.79885e-07
3.29367e-07
-1.9619e-06
3.56489e-07
-1.53842e-07
-1.08283e-06
3.79743e-07
-5.70342e-07
-2.33235e-07
3.02724e-07
-6.08188e-07
1.00297e-07
-1.13015e-07
-5.61099e-08
1.67227e-07
-2.98752e-07
3.68534e-07
-6.24194e-07
4.51986e-07
-9.47163e-07
4.70682e-07
-1.17664e-06
4.30231e-07
-1.21174e-06
3.14982e-07
-9.85227e-07
1.2998e-07
-5.41432e-07
-6.4052e-08
-1.02619e-07
-1.3609e-07
-2.32117e-09
-2.16781e-07
-2.90167e-07
6.74234e-07
-7.16726e-07
-3.90362e-07
1.25886e-06
-1.32361e-06
-4.05033e-07
1.46391e-06
-1.9054e-06
-4.09977e-07
1.46245e-06
-2.31361e-06
-4.38356e-07
1.2768e-06
-2.38356e-06
-4.93413e-07
8.78346e-07
-1.99847e-06
-5.46448e-07
2.91337e-07
-1.20143e-06
-5.38275e-07
-3.22814e-07
-3.31363e-07
-3.99926e-07
-6.06234e-07
-8.75935e-08
-2.46091e-07
-6.01975e-07
-5.33699e-07
1.13315e-06
-1.83008e-06
-7.7731e-07
2.34478e-06
-3.24266e-06
-8.20683e-07
2.72403e-06
-4.5058e-06
-8.28704e-07
2.55671e-06
-5.3016e-06
-8.67677e-07
1.91398e-06
-5.32907e-06
-9.40418e-07
8.03843e-07
-4.40746e-06
-1.00197e-06
-6.1993e-07
-2.67368e-06
-9.57966e-07
-1.88443e-06
-8.23148e-07
-7.23721e-07
-2.13493e-06
-2.3757e-07
-7.86186e-07
-9.04526e-07
-5.45956e-07
1.17727e-06
-2.66941e-06
-8.28391e-07
2.60268e-06
-4.63017e-06
-8.82226e-07
2.99382e-06
-6.30409e-06
-8.8772e-07
2.62521e-06
-7.26961e-06
-9.16272e-07
1.58776e-06
-7.17863e-06
-9.71068e-07
-3.44161e-08
-5.82699e-06
-1.00123e-06
-2.01412e-06
-3.46668e-06
-9.38572e-07
-3.55546e-06
-1.03955e-06
-7.17229e-07
-3.51527e-06
-2.767e-07
-1.23037e-06
-1.10925e-06
-3.36659e-07
1.09713e-06
-3.23559e-06
-5.20871e-07
2.55309e-06
-5.54634e-06
-5.56703e-07
2.89649e-06
-7.45502e-06
-5.58186e-07
2.36074e-06
-8.48315e-06
-5.70161e-07
1.05031e-06
-8.25664e-06
-5.95064e-07
-9.20006e-07
-6.5975e-06
-6.01831e-07
-3.16492e-06
-3.84449e-06
-5.57888e-07
-4.77939e-06
-1.10457e-06
-4.29745e-07
-4.4465e-06
-1.78479e-07
-1.511e-06
-1.21244e-06
3.86197e-12
1.03071e-06
-3.52096e-06
2.89835e-12
2.47322e-06
-6.00216e-06
2.06217e-12
2.77783e-06
-8.01544e-06
1.51983e-12
2.15051e-06
-9.05838e-06
1.08683e-12
7.06924e-07
-8.74644e-06
7.33834e-13
-1.41763e-06
-6.92793e-06
4.45231e-13
-3.76802e-06
-3.98846e-06
2.50474e-13
-5.38359e-06
-1.11539e-06
1.23716e-13
-4.88644e-06
1.23771e-13
-1.63829e-06
-1.21244e-06
3.36667e-07
1.03071e-06
-3.52096e-06
5.20877e-07
2.47322e-06
-6.00216e-06
5.56707e-07
2.77783e-06
-8.01544e-06
5.58189e-07
2.15051e-06
-9.05838e-06
5.70163e-07
7.06924e-07
-8.74644e-06
5.95066e-07
-1.41763e-06
-6.92793e-06
6.01832e-07
-3.76802e-06
-3.98846e-06
5.57888e-07
-5.38359e-06
-1.11539e-06
4.29746e-07
-4.88644e-06
1.78479e-07
-1.63829e-06
-1.10925e-06
5.45967e-07
1.09713e-06
-3.23559e-06
8.28398e-07
2.55309e-06
-5.54634e-06
8.8223e-07
2.89649e-06
-7.45502e-06
8.87723e-07
2.36074e-06
-8.48315e-06
9.16274e-07
1.05031e-06
-8.25664e-06
9.7107e-07
-9.20006e-07
-6.5975e-06
1.00123e-06
-3.16492e-06
-3.84449e-06
9.38572e-07
-4.77939e-06
-1.10457e-06
7.17229e-07
-4.4465e-06
2.76701e-07
-1.511e-06
-9.04529e-07
5.33714e-07
1.17726e-06
-2.66941e-06
7.77319e-07
2.60268e-06
-4.63017e-06
8.20688e-07
2.99382e-06
-6.30409e-06
8.28707e-07
2.62521e-06
-7.26961e-06
8.67678e-07
1.58776e-06
-7.17863e-06
9.40419e-07
-3.44166e-08
-5.82699e-06
1.00197e-06
-2.01412e-06
-3.46668e-06
9.57966e-07
-3.55546e-06
-1.03955e-06
7.23721e-07
-3.51527e-06
2.3757e-07
-1.23037e-06
-6.01983e-07
2.90185e-07
1.13314e-06
-1.83009e-06
3.9037e-07
2.34477e-06
-3.24267e-06
4.05037e-07
2.72403e-06
-4.50581e-06
4.09979e-07
2.55671e-06
-5.3016e-06
4.38357e-07
1.91398e-06
-5.32907e-06
4.93414e-07
8.03842e-07
-4.40746e-06
5.46449e-07
-6.19931e-07
-2.67368e-06
5.38275e-07
-1.88443e-06
-8.23149e-07
3.99926e-07
-2.13493e-06
8.75934e-08
-7.86186e-07
-2.16798e-07
6.74209e-07
-7.16739e-07
1.25884e-06
-1.32362e-06
1.4639e-06
-1.9054e-06
1.46244e-06
-2.31361e-06
1.2768e-06
-2.38356e-06
8.78345e-07
-1.99847e-06
2.91337e-07
-1.20143e-06
-3.22814e-07
-3.31364e-07
-6.06235e-07
-2.46091e-07
-3.29715e-07
-4.41066e-07
1.44501e-06
-9.99414e-07
-5.94995e-07
2.52355e-06
-1.78612e-06
-5.93096e-07
2.84371e-06
-2.5571e-06
-5.43167e-07
2.77659e-06
-3.15512e-06
-5.04433e-07
2.37926e-06
-3.37229e-06
-5.02894e-07
1.59841e-06
-3.00336e-06
-5.26259e-07
4.48668e-07
-1.98722e-06
-5.23734e-07
-8.15223e-07
-6.75254e-07
-3.95727e-07
-1.52247e-06
-4.05151e-08
-8.80831e-07
-9.60312e-07
-7.72428e-07
2.42483e-06
-2.71281e-06
-1.11389e-06
4.61617e-06
-4.65148e-06
-1.11526e-06
5.18486e-06
-6.38579e-06
-1.00859e-06
4.75644e-06
-7.55668e-06
-9.09113e-07
3.48956e-06
-7.78695e-06
-8.59312e-07
1.39052e-06
-6.75444e-06
-8.45009e-07
-1.33368e-06
-4.44056e-06
-8.06165e-07
-3.91588e-06
-1.59148e-06
-6.24747e-07
-4.75499e-06
-1.55671e-07
-2.26251e-06
-1.46869e-06
-7.67128e-07
2.64066e-06
-4.04653e-06
-1.14499e-06
5.21163e-06
-6.78304e-06
-1.14695e-06
5.76202e-06
-9.08653e-06
-1.02392e-06
4.94403e-06
-1.04827e-05
-8.97632e-07
2.97247e-06
-1.0548e-05
-8.10104e-07
-1.83001e-08
-8.95672e-06
-7.5268e-07
-3.69777e-06
-5.78174e-06
-6.98012e-07
-6.83859e-06
-2.03628e-06
-5.56858e-07
-7.32863e-06
-1.90834e-07
-3.23148e-06
-1.81546e-06
-4.65045e-07
2.61051e-06
-4.94769e-06
-7.0563e-07
5.24596e-06
-8.18174e-06
-7.05869e-07
5.68947e-06
-1.07862e-05
-6.23656e-07
4.56491e-06
-1.22333e-05
-5.35034e-07
2.13484e-06
-1.2099e-05
-4.65285e-07
-1.39917e-06
-1.01119e-05
-4.16669e-07
-5.48798e-06
-6.4246e-06
-3.80761e-07
-8.78395e-06
-2.21107e-06
-3.11586e-07
-8.9053e-06
-1.23646e-07
-3.78927e-06
-1.98965e-06
2.91824e-12
2.55531e-06
-5.39812e-06
2.09924e-12
5.17606e-06
-8.86761e-06
1.50554e-12
5.54144e-06
-1.15953e-05
1.14324e-12
4.2545e-06
-1.30335e-05
8.30977e-13
1.61008e-06
-1.27755e-05
5.63776e-13
-2.14083e-06
-1.05883e-05
3.2822e-13
-6.3719e-06
-6.6709e-06
1.63797e-13
-9.68179e-06
-2.26611e-06
6.62383e-14
-9.60282e-06
9.43191e-14
-4.02805e-06
-1.98965e-06
4.65051e-07
2.55531e-06
-5.39812e-06
7.05634e-07
5.17606e-06
-8.86761e-06
7.05872e-07
5.54144e-06
-1.15953e-05
6.23658e-07
4.2545e-06
-1.30335e-05
5.35036e-07
1.61008e-06
-1.27755e-05
4.65286e-07
-2.14083e-06
-1.05883e-05
4.1667e-07
-6.3719e-06
-6.6709e-06
3.80761e-07
-9.68179e-06
-2.26611e-06
3.11586e-07
-9.60282e-06
1.23647e-07
-4.02805e-06
-1.81546e-06
7.67135e-07
2.61051e-06
-4.94769e-06
1.14499e-06
5.24596e-06
-8.18174e-06
1.14695e-06
5.68947e-06
-1.07862e-05
1.02393e-06
4.56491e-06
-1.22333e-05
8.97633e-07
2.13484e-06
-1.2099e-05
8.10105e-07
-1.39917e-06
-1.01119e-05
7.5268e-07
-5.48798e-06
-6.4246e-06
6.98012e-07
-8.78395e-06
-2.21107e-06
5.56858e-07
-8.9053e-06
1.90835e-07
-3.78927e-06
-1.46869e-06
7.72435e-07
2.64065e-06
-4.04654e-06
1.11389e-06
5.21163e-06
-6.78304e-06
1.11526e-06
5.76202e-06
-9.08653e-06
1.00859e-06
4.94403e-06
-1.04827e-05
9.09114e-07
2.97247e-06
-1.0548e-05
8.59313e-07
-1.83006e-08
-8.95672e-06
8.4501e-07
-3.69777e-06
-5.78174e-06
8.06166e-07
-6.83859e-06
-2.03628e-06
6.24747e-07
-7.32863e-06
1.55672e-07
-3.23148e-06
-9.60315e-07
4.41072e-07
2.42482e-06
-2.71281e-06
5.94999e-07
4.61616e-06
-4.65149e-06
5.93098e-07
5.18486e-06
-6.38579e-06
5.43169e-07
4.75643e-06
-7.55669e-06
5.04434e-07
3.48956e-06
-7.78695e-06
5.02894e-07
1.39052e-06
-6.75445e-06
5.26259e-07
-1.33368e-06
-4.44056e-06
5.23734e-07
-3.91588e-06
-1.59148e-06
3.95727e-07
-4.75499e-06
4.05151e-08
-2.26251e-06
-3.29721e-07
1.445e-06
-9.99421e-07
2.52354e-06
-1.78613e-06
2.84371e-06
-2.5571e-06
2.77658e-06
-3.15512e-06
2.37926e-06
-3.37229e-06
1.59841e-06
-3.00336e-06
4.48667e-07
-1.98722e-06
-8.15223e-07
-6.75255e-07
-1.52247e-06
-8.80831e-07
-4.10697e-07
-5.70446e-07
2.42616e-06
-1.19129e-06
-7.45487e-07
4.04962e-06
-2.10243e-06
-6.85409e-07
4.44026e-06
-3.0527e-06
-5.2932e-07
4.25618e-06
-3.91506e-06
-3.70158e-07
3.61178e-06
-4.44808e-06
-2.68956e-07
2.40038e-06
-4.30682e-06
-2.50253e-07
5.57655e-07
-3.19215e-06
-3.04832e-07
-1.62506e-06
-1.31424e-06
-2.94087e-07
-3.1063e-06
1.4378e-09
-2.19651e-06
-1.23547e-06
-9.72952e-07
4.0628e-06
-3.37462e-06
-1.35032e-06
7.36015e-06
-5.70716e-06
-1.22877e-06
8.06077e-06
-7.86803e-06
-9.0333e-07
7.29132e-06
-9.52996e-06
-5.52069e-07
5.3334e-06
-1.02589e-05
-2.90462e-07
2.14096e-06
-9.51085e-06
-1.78705e-07
-2.15327e-06
-6.87318e-06
-2.38558e-07
-6.61981e-06
-2.85418e-06
-2.99748e-07
-8.76833e-06
-4.69344e-08
-5.06832e-06
-1.90648e-06
-9.48136e-07
4.52231e-06
-5.09396e-06
-1.3549e-06
8.40368e-06
-8.40385e-06
-1.21842e-06
9.06157e-06
-1.1239e-05
-8.54971e-07
7.73079e-06
-1.31704e-05
-4.52782e-07
4.80462e-06
-1.37184e-05
-1.30346e-07
3.69615e-07
-1.23754e-05
1.95258e-08
-5.23904e-06
-8.76025e-06
-3.81972e-08
-1.06541e-05
-3.58481e-06
-1.63408e-07
-1.26404e-05
-6.40889e-08
-6.79914e-06
-2.3619e-06
-5.67754e-07
4.59203e-06
-6.24245e-06
-8.22193e-07
8.5938e-06
-1.01351e-05
-7.32124e-07
9.09581e-06
-1.32819e-05
-4.96004e-07
7.35273e-06
-1.52187e-05
-2.32881e-07
3.85172e-06
-1.55252e-05
-1.78103e-08
-1.20511e-06
-1.37501e-05
8.0573e-08
-7.32417e-06
-9.60081e-06
4.13302e-08
-1.30128e-05
-3.87999e-06
-5.6407e-08
-1.47331e-05
-4.05471e-08
-7.6928e-06
-2.588e-06
2.15164e-12
4.57555e-06
-6.80681e-06
1.53758e-12
8.57268e-06
-1.09623e-05
1.12568e-12
8.96482e-06
-1.42166e-05
8.71971e-13
7.01283e-06
-1.61044e-05
6.31778e-13
3.26494e-06
-1.62532e-05
4.09981e-13
-2.00982e-06
-1.42718e-05
2.18556e-13
-8.27273e-06
-9.90532e-06
9.07211e-14
-1.40069e-05
-3.98126e-06
3.07897e-14
-1.55833e-05
6.07524e-14
-8.04986e-06
-2.588e-06
5.67758e-07
4.57555e-06
-6.80681e-06
8.22196e-07
8.57268e-06
-1.09623e-05
7.32126e-07
8.96482e-06
-1.42166e-05
4.96006e-07
7.01283e-06
-1.61044e-05
2.32882e-07
3.26494e-06
-1.62532e-05
1.78111e-08
-2.00982e-06
-1.42718e-05
-8.05726e-08
-8.27273e-06
-9.90532e-06
-4.133e-08
-1.40069e-05
-3.98126e-06
5.6407e-08
-1.55833e-05
4.05473e-08
-8.04986e-06
-2.3619e-06
9.4814e-07
4.59203e-06
-6.24245e-06
1.3549e-06
8.5938e-06
-1.01351e-05
1.21842e-06
9.09581e-06
-1.32819e-05
8.54972e-07
7.35273e-06
-1.52187e-05
4.52783e-07
3.85172e-06
-1.55252e-05
1.30347e-07
-1.20511e-06
-1.37501e-05
-1.95254e-08
-7.32417e-06
-9.60081e-06
3.81974e-08
-1.30128e-05
-3.87999e-06
1.63408e-07
-1.47331e-05
6.4089e-08
-7.6928e-06
-1.90648e-06
9.72956e-07
4.52231e-06
-5.09396e-06
1.35033e-06
8.40368e-06
-8.40385e-06
1.22877e-06
9.06156e-06
-1.1239e-05
9.03332e-07
7.73079e-06
-1.31704e-05
5.5207e-07
4.80462e-06
-1.37184e-05
2.90463e-07
3.69615e-07
-1.23754e-05
1.78706e-07
-5.23904e-06
-8.76025e-06
2.38558e-07
-1.06541e-05
-3.58481e-06
2.99748e-07
-1.26404e-05
4.69345e-08
-6.79914e-06
-1.23547e-06
5.70449e-07
4.0628e-06
-3.37462e-06
7.45489e-07
7.36014e-06
-5.70717e-06
6.85411e-07
8.06077e-06
-7.86804e-06
5.2932e-07
7.29131e-06
-9.52997e-06
3.70159e-07
5.3334e-06
-1.02589e-05
2.68957e-07
2.14096e-06
-9.51085e-06
2.50253e-07
-2.15328e-06
-6.87318e-06
3.04832e-07
-6.61981e-06
-2.85418e-06
2.94087e-07
-8.76833e-06
-1.43772e-09
-5.06832e-06
-4.107e-07
2.42615e-06
-1.19129e-06
4.04962e-06
-2.10243e-06
4.44026e-06
-3.0527e-06
4.25618e-06
-3.91506e-06
3.61178e-06
-4.44809e-06
2.40038e-06
-4.30682e-06
5.57654e-07
-3.19215e-06
-1.62506e-06
-1.31424e-06
-3.1063e-06
-2.19651e-06
-4.98992e-07
-6.67075e-07
3.59222e-06
-1.33165e-06
-8.26302e-07
5.70858e-06
-2.28532e-06
-6.57071e-07
6.051e-06
-3.36849e-06
-3.29015e-07
5.66837e-06
-4.54538e-06
4.14753e-08
4.74719e-06
-5.57718e-06
3.21955e-07
3.11023e-06
-5.95058e-06
4.18631e-07
5.1242e-07
-4.98122e-06
2.57648e-07
-2.85207e-06
-2.46808e-06
8.32048e-09
-5.62776e-06
1.12311e-08
-4.67582e-06
-1.46381e-06
-1.11349e-06
5.97303e-06
-3.82934e-06
-1.46029e-06
1.03597e-05
-6.36328e-06
-1.12641e-06
1.1064e-05
-8.8278e-06
-4.65241e-07
9.89206e-06
-1.10131e-05
2.66926e-07
7.29321e-06
-1.24961e-05
8.48353e-07
3.09762e-06
-1.24943e-05
1.07726e-06
-2.81376e-06
-1.00176e-05
8.04997e-07
-9.64383e-06
-4.86313e-06
2.53551e-07
-1.4168e-05
1.47402e-08
-9.93496e-06
-2.22865e-06
-1.06721e-06
6.70468e-06
-5.76633e-06
-1.43589e-06
1.1917e-05
-9.35558e-06
-1.07418e-06
1.25986e-05
-1.25085e-05
-3.61254e-07
1.07797e-05
-1.49347e-05
4.19332e-07
7.07849e-06
-1.62027e-05
1.02923e-06
1.45667e-06
-1.56114e-05
1.25725e-06
-6.01028e-06
-1.22073e-05
9.61126e-07
-1.42144e-05
-5.85531e-06
3.66607e-07
-1.91055e-05
2.12891e-08
-1.2661e-05
-2.73513e-06
-6.319e-07
6.89185e-06
-7.0236e-06
-8.59317e-07
1.23057e-05
-1.11993e-05
-6.27793e-07
1.28252e-05
-1.46021e-05
-1.76064e-07
1.05702e-05
-1.69431e-05
3.13237e-07
6.29889e-06
-1.78728e-05
6.91108e-07
6.27217e-08
-1.68639e-05
8.11362e-07
-7.88726e-06
-1.30315e-05
6.14189e-07
-1.64982e-05
-6.22601e-06
2.44084e-07
-2.14161e-05
1.65401e-08
-1.39141e-05
-2.98056e-06
1.5322e-12
6.92421e-06
-7.62364e-06
1.10155e-12
1.23564e-05
-1.20449e-05
8.10412e-13
1.27583e-05
-1.55014e-05
6.20553e-13
1.02932e-05
-1.77254e-05
4.40785e-13
5.80217e-06
-1.84609e-05
2.76154e-13
-5.83166e-07
-1.72636e-05
1.40599e-13
-8.6587e-06
-1.32939e-05
5.38752e-14
-1.73624e-05
-6.35402e-06
1.66542e-14
-2.22791e-05
2.49401e-14
-1.43873e-05
-2.98056e-06
6.31903e-07
6.92421e-06
-7.62364e-06
8.59319e-07
1.23564e-05
-1.20449e-05
6.27795e-07
1.27583e-05
-1.55014e-05
1.76066e-07
1.02932e-05
-1.77254e-05
-3.13236e-07
5.80217e-06
-1.84609e-05
-6.91107e-07
-5.83166e-07
-1.72636e-05
-8.11362e-07
-8.6587e-06
-1.32939e-05
-6.14189e-07
-1.73624e-05
-6.35402e-06
-2.44084e-07
-2.22791e-05
-1.654e-08
-1.43873e-05
-2.73513e-06
1.06721e-06
6.89185e-06
-7.0236e-06
1.4359e-06
1.23057e-05
-1.11993e-05
1.07418e-06
1.28252e-05
-1.46021e-05
3.61255e-07
1.05702e-05
-1.69431e-05
-4.19331e-07
6.29889e-06
-1.78728e-05
-1.02923e-06
6.27215e-08
-1.68639e-05
-1.25725e-06
-7.88726e-06
-1.30315e-05
-9.61126e-07
-1.64982e-05
-6.22601e-06
-3.66607e-07
-2.14161e-05
-2.1289e-08
-1.39141e-05
-2.22865e-06
1.11349e-06
6.70468e-06
-5.76633e-06
1.46029e-06
1.1917e-05
-9.35558e-06
1.12642e-06
1.25986e-05
-1.25085e-05
4.65242e-07
1.07797e-05
-1.49347e-05
-2.66925e-07
7.07849e-06
-1.62027e-05
-8.48353e-07
1.45667e-06
-1.56114e-05
-1.07726e-06
-6.01028e-06
-1.22073e-05
-8.04997e-07
-1.42144e-05
-5.85531e-06
-2.53551e-07
-1.91055e-05
-1.47401e-08
-1.2661e-05
-1.46381e-06
6.67076e-07
5.97302e-06
-3.82935e-06
8.26303e-07
1.03597e-05
-6.36328e-06
6.57072e-07
1.1064e-05
-8.8278e-06
3.29016e-07
9.89206e-06
-1.10131e-05
-4.14749e-08
7.29321e-06
-1.24961e-05
-3.21954e-07
3.09762e-06
-1.24943e-05
-4.18631e-07
-2.81376e-06
-1.00176e-05
-2.57648e-07
-9.64383e-06
-4.86313e-06
-8.32047e-09
-1.4168e-05
-1.12311e-08
-9.93496e-06
-4.98993e-07
3.59222e-06
-1.33165e-06
5.70858e-06
-2.28532e-06
6.051e-06
-3.36849e-06
5.66837e-06
-4.54538e-06
4.74719e-06
-5.57718e-06
3.11023e-06
-5.95058e-06
5.12419e-07
-4.98122e-06
-2.85207e-06
-2.46808e-06
-5.62776e-06
-4.67582e-06
-6.86893e-07
-7.34894e-07
5.01401e-06
-1.49062e-06
-8.35273e-07
7.34758e-06
-2.31956e-06
-5.0242e-07
7.38236e-06
-3.37911e-06
7.35917e-08
6.65434e-06
-4.79363e-06
7.25254e-07
5.43646e-06
-6.42348e-06
1.29083e-06
3.44925e-06
-7.63128e-06
1.54631e-06
1.73913e-07
-7.25623e-06
1.23805e-06
-4.46517e-06
-4.29414e-06
4.96313e-07
-9.08615e-06
-6.48722e-08
-8.90509e-06
-1.73363e-06
-1.19437e-06
8.16614e-06
-4.10212e-06
-1.44707e-06
1.33399e-05
-6.46837e-06
-8.25196e-07
1.37531e-05
-8.85261e-06
2.60123e-07
1.20898e-05
-1.1288e-05
1.46591e-06
8.98793e-06
-1.3482e-05
2.4533e-06
4.1292e-06
-1.4576e-05
2.83071e-06
-3.00424e-06
-1.30159e-05
2.25172e-06
-1.22176e-05
-7.42947e-06
9.50816e-07
-2.02089e-05
-6.08774e-08
-1.73684e-05
-2.4952e-06
-1.12281e-06
9.12832e-06
-6.02086e-06
-1.39719e-06
1.53928e-05
-9.37083e-06
-7.51882e-07
1.58752e-05
-1.23086e-05
3.64902e-07
1.36127e-05
-1.47982e-05
1.56871e-06
9.46528e-06
-1.66055e-05
2.49381e-06
3.22346e-06
-1.70633e-05
2.75297e-06
-5.47478e-06
-1.47801e-05
2.10685e-06
-1.63527e-05
-8.36689e-06
8.67843e-07
-2.54357e-05
-3.28641e-08
-2.10559e-05
-2.97479e-06
-6.56463e-07
9.40029e-06
-7.20559e-06
-8.25346e-07
1.59647e-05
-1.10491e-05
-4.24053e-07
1.63408e-05
-1.40944e-05
2.62964e-07
1.37176e-05
-1.63257e-05
9.83735e-07
9.11512e-06
-1.76778e-05
1.50307e-06
2.40556e-06
-1.77126e-05
1.61218e-06
-6.71169e-06
-1.52012e-05
1.19297e-06
-1.80957e-05
-8.65589e-06
4.76594e-07
-2.75701e-05
-1.10594e-08
-2.25918e-05
-3.19817e-06
1.05333e-12
9.46592e-06
-7.74698e-06
7.47046e-13
1.60799e-05
-1.17746e-05
5.3614e-13
1.63618e-05
-1.47909e-05
3.98462e-13
1.35725e-05
-1.68276e-05
2.7245e-13
8.82264e-06
-1.79244e-05
1.49636e-13
2.01667e-06
-1.7809e-05
5.69845e-14
-7.16196e-06
-1.5285e-05
1.88049e-14
-1.86934e-05
-8.76063e-06
3.25415e-15
-2.83269e-05
2.27449e-14
-2.3159e-05
-3.19817e-06
6.56465e-07
9.46592e-06
-7.74698e-06
8.25348e-07
1.60799e-05
-1.17746e-05
4.24054e-07
1.63618e-05
-1.47909e-05
-2.62963e-07
1.35725e-05
-1.68276e-05
-9.83734e-07
8.82264e-06
-1.79244e-05
-1.50307e-06
2.01667e-06
-1.7809e-05
-1.61218e-06
-7.16196e-06
-1.5285e-05
-1.19297e-06
-1.86934e-05
-8.76063e-06
-4.76594e-07
-2.83269e-05
1.10595e-08
-2.3159e-05
-2.97479e-06
1.12281e-06
9.40029e-06
-7.20559e-06
1.39719e-06
1.59647e-05
-1.10491e-05
7.51883e-07
1.63408e-05
-1.40944e-05
-3.64901e-07
1.37176e-05
-1.63257e-05
-1.56871e-06
9.11512e-06
-1.76778e-05
-2.49381e-06
2.40556e-06
-1.77126e-05
-2.75296e-06
-6.71169e-06
-1.52012e-05
-2.10685e-06
-1.80957e-05
-8.65589e-06
-8.67843e-07
-2.75701e-05
3.28642e-08
-2.25918e-05
-2.4952e-06
1.19437e-06
9.12832e-06
-6.02086e-06
1.44707e-06
1.53928e-05
-9.37083e-06
8.25197e-07
1.58752e-05
-1.23086e-05
-2.60123e-07
1.36127e-05
-1.47982e-05
-1.46591e-06
9.46528e-06
-1.66055e-05
-2.4533e-06
3.22346e-06
-1.70633e-05
-2.83071e-06
-5.47478e-06
-1.47801e-05
-2.25172e-06
-1.63527e-05
-8.36689e-06
-9.50816e-07
-2.54357e-05
6.08775e-08
-2.10559e-05
-1.73363e-06
7.34895e-07
8.16614e-06
-4.10212e-06
8.35274e-07
1.33399e-05
-6.46837e-06
5.0242e-07
1.37531e-05
-8.85261e-06
-7.35913e-08
1.20898e-05
-1.1288e-05
-7.25254e-07
8.98793e-06
-1.3482e-05
-1.29083e-06
4.1292e-06
-1.4576e-05
-1.54631e-06
-3.00424e-06
-1.30159e-05
-1.23805e-06
-1.22176e-05
-7.42947e-06
-4.96313e-07
-2.02089e-05
6.48722e-08
-1.73684e-05
-6.86893e-07
5.01401e-06
-1.49062e-06
7.34758e-06
-2.31956e-06
7.38236e-06
-3.37911e-06
6.65433e-06
-4.79363e-06
5.43646e-06
-6.42348e-06
3.44925e-06
-7.63128e-06
1.73912e-07
-7.25623e-06
-4.46517e-06
-4.29414e-06
-9.08615e-06
-8.90509e-06
-1.21682e-06
-8.28774e-07
7.0596e-06
-1.80797e-06
-8.37866e-07
8.7766e-06
-2.15662e-06
-3.0472e-07
8.03573e-06
-2.80015e-06
5.47966e-07
6.7499e-06
-4.1177e-06
1.53114e-06
5.22287e-06
-6.17502e-06
2.45969e-06
3.04687e-06
-8.42965e-06
2.98662e-06
-5.58071e-07
-9.23827e-06
2.5909e-06
-6.24746e-06
-6.51209e-06
1.19911e-06
-1.30114e-05
-2.98742e-07
-1.51184e-05
-2.35384e-06
-1.27502e-06
1.09662e-05
-4.33072e-06
-1.40751e-06
1.58865e-05
-5.82948e-06
-4.81879e-07
1.5429e-05
-7.30333e-06
1.00576e-06
1.31058e-05
-9.14915e-06
2.65348e-06
9.71142e-06
-1.1408e-05
4.04765e-06
4.80012e-06
-1.34846e-05
4.62828e-06
-2.56936e-06
-1.36418e-05
3.75837e-06
-1.32278e-05
-9.28557e-06
1.56506e-06
-2.49311e-05
-4.27137e-07
-2.65256e-05
-2.99452e-06
-1.15958e-06
1.20074e-05
-5.96571e-06
-1.3246e-06
1.8281e-05
-8.20787e-06
-4.12818e-07
1.80483e-05
-9.92212e-06
1.03646e-06
1.52963e-05
-1.14456e-05
2.57207e-06
1.10702e-05
-1.29464e-05
3.74798e-06
5.02394e-06
-1.41709e-05
4.05959e-06
-3.68158e-06
-1.38367e-05
3.08237e-06
-1.60109e-05
-9.45685e-06
1.14682e-06
-2.93973e-05
-3.4923e-07
-3.05906e-05
-3.3621e-06
-6.64942e-07
1.22678e-05
-6.89502e-06
-7.69867e-07
1.89428e-05
-9.46321e-06
-2.20434e-07
1.87166e-05
-1.11059e-05
6.43274e-07
1.57535e-05
-1.21902e-05
1.52704e-06
1.12445e-05
-1.30829e-05
2.15443e-06
4.89177e-06
-1.38463e-05
2.24741e-06
-4.13611e-06
-1.34817e-05
1.62587e-06
-1.70039e-05
-9.40855e-06
5.58601e-07
-3.1055e-05
-1.79264e-07
-3.21703e-05
-3.52285e-06
6.74746e-13
1.23238e-05
-7.29223e-06
4.38511e-13
1.90794e-05
-9.95938e-06
2.78916e-13
1.88085e-05
-1.14963e-05
1.77031e-13
1.57527e-05
-1.23211e-05
9.10684e-14
1.11745e-05
-1.29368e-05
2.12506e-14
4.78683e-06
-1.35691e-05
-1.58607e-14
-4.28223e-06
-1.33026e-05
-1.27072e-14
-1.73342e-05
-9.41817e-06
-6.09234e-15
-3.16526e-05
3.70031e-14
-3.27564e-05
-3.52285e-06
6.64943e-07
1.23238e-05
-7.29223e-06
7.69868e-07
1.90794e-05
-9.95938e-06
2.20435e-07
1.88085e-05
-1.14963e-05
-6.43274e-07
1.57527e-05
-1.23211e-05
-1.52704e-06
1.11745e-05
-1.29368e-05
-2.15443e-06
4.78683e-06
-1.35691e-05
-2.24741e-06
-4.28223e-06
-1.33026e-05
-1.62587e-06
-1.73342e-05
-9.41817e-06
-5.58601e-07
-3.16526e-05
1.79264e-07
-3.27564e-05
-3.3621e-06
1.15958e-06
1.22678e-05
-6.89502e-06
1.3246e-06
1.89428e-05
-9.46321e-06
4.12818e-07
1.87166e-05
-1.11059e-05
-1.03646e-06
1.57535e-05
-1.21902e-05
-2.57207e-06
1.12445e-05
-1.30829e-05
-3.74798e-06
4.89177e-06
-1.38463e-05
-4.05959e-06
-4.13611e-06
-1.34817e-05
-3.08237e-06
-1.70039e-05
-9.40855e-06
-1.14682e-06
-3.1055e-05
3.4923e-07
-3.21703e-05
-2.99452e-06
1.27502e-06
1.20074e-05
-5.96571e-06
1.40751e-06
1.8281e-05
-8.20787e-06
4.8188e-07
1.80483e-05
-9.92212e-06
-1.00576e-06
1.52963e-05
-1.14456e-05
-2.65348e-06
1.10702e-05
-1.29464e-05
-4.04765e-06
5.02394e-06
-1.41709e-05
-4.62828e-06
-3.68158e-06
-1.38367e-05
-3.75837e-06
-1.60109e-05
-9.45685e-06
-1.56506e-06
-2.93973e-05
4.27137e-07
-3.05906e-05
-2.35384e-06
8.28775e-07
1.09662e-05
-4.33072e-06
8.37866e-07
1.58865e-05
-5.82948e-06
3.0472e-07
1.5429e-05
-7.30333e-06
-5.47965e-07
1.31058e-05
-9.14915e-06
-1.53114e-06
9.71142e-06
-1.1408e-05
-2.45969e-06
4.80012e-06
-1.34846e-05
-2.98662e-06
-2.56936e-06
-1.36418e-05
-2.5909e-06
-1.32278e-05
-9.28557e-06
-1.19911e-06
-2.49311e-05
2.98742e-07
-2.65256e-05
-1.21682e-06
7.0596e-06
-1.80797e-06
8.7766e-06
-2.15662e-06
8.03573e-06
-2.80015e-06
6.7499e-06
-4.1177e-06
5.22287e-06
-6.17502e-06
3.04687e-06
-8.42965e-06
-5.58071e-07
-9.23827e-06
-6.24746e-06
-6.51209e-06
-1.30114e-05
-1.51184e-05
-2.4637e-06
-1.08069e-06
1.0604e-05
-2.20778e-06
-1.07224e-06
9.59292e-06
-1.25311e-06
-3.80903e-07
7.46197e-06
-7.03764e-07
6.8898e-07
5.51157e-06
-1.19995e-06
1.91953e-06
3.79953e-06
-3.06749e-06
3.14937e-06
1.76504e-06
-6.14336e-06
4.02891e-06
-1.51111e-06
-8.68233e-06
3.67988e-06
-7.38837e-06
-7.67151e-06
1.61463e-06
-1.56369e-05
-1.01936e-06
-2.17706e-05
-3.99452e-06
-1.52782e-06
1.54079e-05
-4.61418e-06
-1.65276e-06
1.70866e-05
-3.80217e-06
-5.73052e-07
1.48091e-05
-2.84303e-06
1.09282e-06
1.17428e-05
-2.58843e-06
2.94665e-06
8.42969e-06
-3.51899e-06
4.5986e-06
4.28146e-06
-5.69329e-06
5.49564e-06
-1.8618e-06
-8.02079e-06
4.59093e-06
-1.18113e-05
-7.43103e-06
1.6106e-06
-2.55169e-05
-1.3906e-06
-3.35854e-05
-4.59819e-06
-1.3061e-06
1.63839e-05
-5.91491e-06
-1.46614e-06
1.94111e-05
-5.43164e-06
-4.66664e-07
1.74587e-05
-4.25243e-06
1.0506e-06
1.41593e-05
-3.1947e-06
2.65398e-06
1.03051e-05
-2.89427e-06
3.95021e-06
5.3719e-06
-3.80016e-06
4.45879e-06
-1.73884e-06
-5.72038e-06
3.44687e-06
-1.29466e-05
-5.98146e-06
1.00933e-06
-2.85349e-05
-1.02793e-06
-3.69348e-05
-4.8597e-06
-7.21663e-07
1.6543e-05
-6.53379e-06
-8.22535e-07
1.99733e-05
-6.18442e-06
-2.40639e-07
1.81412e-05
-4.80469e-06
6.29341e-07
1.4795e-05
-3.23401e-06
1.51487e-06
1.08129e-05
-2.26441e-06
2.18053e-06
5.69185e-06
-2.62706e-06
2.36984e-06
-1.68451e-06
-4.59402e-06
1.7405e-06
-1.33305e-05
-5.46986e-06
4.56593e-07
-2.96265e-05
-4.93001e-07
-3.81751e-05
-4.95324e-06
4.00619e-13
1.65554e-05
-6.75814e-06
2.08517e-13
2.00618e-05
-6.43004e-06
9.57936e-14
1.82398e-05
-4.92489e-06
3.34983e-14
1.48769e-05
-3.11836e-06
-1.93865e-14
1.08828e-05
-1.90234e-06
-5.83966e-14
5.75134e-06
-2.13584e-06
-6.1299e-14
-1.6789e-06
-4.24313e-06
-3.71302e-14
-1.34864e-05
-5.39189e-06
-3.79817e-15
-3.00473e-05
5.12427e-14
-3.86413e-05
-4.95324e-06
7.21664e-07
1.65554e-05
-6.75815e-06
8.22536e-07
2.00618e-05
-6.43004e-06
2.40639e-07
1.82398e-05
-4.92489e-06
-6.29341e-07
1.48769e-05
-3.11836e-06
-1.51487e-06
1.08828e-05
-1.90234e-06
-2.18053e-06
5.75134e-06
-2.13584e-06
-2.36984e-06
-1.6789e-06
-4.24313e-06
-1.7405e-06
-1.34864e-05
-5.39189e-06
-4.56593e-07
-3.00473e-05
4.93001e-07
-3.86413e-05
-4.8597e-06
1.3061e-06
1.6543e-05
-6.53379e-06
1.46614e-06
1.99733e-05
-6.18442e-06
4.66664e-07
1.81412e-05
-4.80469e-06
-1.0506e-06
1.4795e-05
-3.23401e-06
-2.65398e-06
1.08129e-05
-2.26441e-06
-3.95021e-06
5.69185e-06
-2.62706e-06
-4.45879e-06
-1.68451e-06
-4.59402e-06
-3.44687e-06
-1.33305e-05
-5.46986e-06
-1.00933e-06
-2.96265e-05
1.02793e-06
-3.81751e-05
-4.59819e-06
1.52782e-06
1.63839e-05
-5.91491e-06
1.65276e-06
1.94111e-05
-5.43164e-06
5.73052e-07
1.74587e-05
-4.25243e-06
-1.09282e-06
1.41593e-05
-3.1947e-06
-2.94665e-06
1.03051e-05
-2.89427e-06
-4.5986e-06
5.3719e-06
-3.80016e-06
-5.49564e-06
-1.73884e-06
-5.72038e-06
-4.59093e-06
-1.29466e-05
-5.98146e-06
-1.6106e-06
-2.85349e-05
1.3906e-06
-3.69348e-05
-3.99452e-06
1.08069e-06
1.54079e-05
-4.61418e-06
1.07224e-06
1.70866e-05
-3.80217e-06
3.80903e-07
1.48091e-05
-2.84303e-06
-6.8898e-07
1.17428e-05
-2.58843e-06
-1.91953e-06
8.42969e-06
-3.51899e-06
-3.14937e-06
4.28146e-06
-5.69329e-06
-4.02891e-06
-1.8618e-06
-8.02079e-06
-3.67988e-06
-1.18113e-05
-7.43103e-06
-1.61463e-06
-2.55169e-05
1.01936e-06
-3.35854e-05
-2.4637e-06
1.0604e-05
-2.20778e-06
9.59292e-06
-1.25311e-06
7.46197e-06
-7.03764e-07
5.51157e-06
-1.19995e-06
3.79953e-06
-3.06749e-06
1.76504e-06
-6.14336e-06
-1.51111e-06
-8.68233e-06
-7.38837e-06
-7.67151e-06
-1.56369e-05
-2.17706e-05
-2.66492e-06
-1.85766e-06
1.51266e-05
5.34106e-07
-1.99201e-06
8.38591e-06
4.57961e-06
-1.19841e-06
4.61488e-06
7.44159e-06
-1.40647e-07
2.79023e-06
8.6218e-06
1.101e-06
1.51832e-06
7.68367e-06
2.38303e-06
3.20136e-07
4.36633e-06
3.54591e-06
-1.73969e-06
-6.12203e-07
3.4417e-06
-5.85153e-06
-3.46867e-06
8.91114e-07
-1.36715e-05
-2.72958e-06
-2.25097e-05
-4.75447e-06
-2.23291e-06
2.05376e-05
-7.35456e-07
-2.67854e-06
1.37542e-05
5.207e-06
-1.76315e-06
9.43141e-06
1.03594e-05
-2.85772e-07
6.73553e-06
1.40305e-05
1.38021e-06
4.47944e-06
1.55404e-05
3.00774e-06
2.14679e-06
1.40866e-05
4.26089e-06
-1.12299e-06
9.34936e-06
3.82141e-06
-7.45377e-06
3.10648e-06
6.75729e-07
-1.90586e-05
-2.77508e-06
-3.04334e-05
-5.51273e-06
-1.71045e-06
2.13741e-05
-1.68178e-06
-2.16898e-06
1.50706e-05
4.42169e-06
-1.43245e-06
1.10245e-05
1.02574e-05
-2.24121e-07
8.26189e-06
1.50672e-05
1.11632e-06
5.75924e-06
1.80587e-05
2.35085e-06
3.03731e-06
1.79882e-05
3.18464e-06
-5.9212e-07
1.37573e-05
2.73053e-06
-7.62485e-06
5.73571e-06
4.15613e-07
-2.02532e-05
-1.7412e-06
-3.22329e-05
-5.70602e-06
-8.88744e-07
2.14273e-05
-2.01162e-06
-1.15257e-06
1.52625e-05
4.09645e-06
-7.48242e-07
1.13489e-05
1.01458e-05
-9.91744e-08
8.62066e-06
1.53717e-05
6.08963e-07
6.09437e-06
1.88919e-05
1.2354e-06
3.28717e-06
1.92202e-05
1.61901e-06