/*--------------------------------*- C++ -*----------------------------------*\
  =========                 |
  \\      /  F ield         | OpenFOAM: The Open Source CFD Toolbox
   \\    /   O peration     | Website:  https://openfoam.org
    \\  /    A nd           | Version:  9
     \\/     M anipulation  |
\*---------------------------------------------------------------------------*/
FoamFile
{
    format      ascii;
    class       volVectorField;
    location    "1";
    object      U;
}
// * * * * * * * * * * * * * * * * * * * * * * * * * * * * * * * * * * * * * //

dimensions      [0 1 -1 0 0 0 0];

internalField   nonuniform List<vector> 
1000
(
(3.74615e-05 -0.000519509 0.000339927)
(-0.00138494 -0.000491585 0.00108009)
(-0.00456179 -0.000448802 0.00144622)
(-0.00796886 -0.00055872 0.0016099)
(-0.0108993 -0.000869023 0.00158167)
(-0.0123785 -0.00133989 0.00126896)
(-0.0114586 -0.00180533 0.000660906)
(-0.00788703 -0.00197205 -1.05247e-05)
(-0.00262326 -0.00156833 -0.00020953)
(0.000115671 -0.000469847 0.000387375)
(-0.000141388 -0.00185178 0.000597021)
(-0.00342966 -0.00230059 0.00232302)
(-0.0101735 -0.00238635 0.00309302)
(-0.0171171 -0.00271955 0.00319756)
(-0.0227479 -0.00348488 0.00270654)
(-0.0252594 -0.00457867 0.00152378)
(-0.0230102 -0.00557273 -0.000205275)
(-0.0157121 -0.00575838 -0.00174224)
(-0.00545231 -0.00455327 -0.00176006)
(1.14612e-07 -0.00168412 0.00024577)
(-0.000346022 -0.00278619 0.000280381)
(-0.00501484 -0.00392659 0.00237054)
(-0.0141638 -0.00425291 0.00328137)
(-0.0233325 -0.00469792 0.00323743)
(-0.0304737 -0.00555393 0.00230545)
(-0.0332804 -0.006701 0.000417818)
(-0.0297488 -0.00759014 -0.00210871)
(-0.0197393 -0.00751105 -0.00403101)
(-0.00628463 -0.00591958 -0.00347834)
(0.000362755 -0.00251578 -3.71099e-05)
(-0.000498291 -0.00236879 -0.000145689)
(-0.00611601 -0.00348237 0.00200291)
(-0.0168631 -0.00381784 0.00293218)
(-0.0274447 -0.00417413 0.00275381)
(-0.0354522 -0.00480027 0.00150647)
(-0.0382122 -0.0056016 -0.000846489)
(-0.0335687 -0.00613726 -0.0038457)
(-0.0216676 -0.00594323 -0.00587455)
(-0.00622481 -0.00468071 -0.00474241)
(0.000845237 -0.0021067 -0.000233461)
(-0.000581806 -0.000916304 -0.000412443)
(-0.00668897 -0.00136877 0.00171922)
(-0.0182408 -0.0015069 0.00263866)
(-0.02951 -0.00163941 0.00238398)
(-0.0378987 -0.00186104 0.000972492)
(-0.0405649 -0.00213542 -0.00161471)
(-0.0352944 -0.00231097 -0.00480964)
(-0.0224135 -0.00221771 -0.00683728)
(-0.00602424 -0.00174762 -0.00536697)
(0.00115029 -0.000806349 -0.000322169)
(-0.000581809 0.000916404 -0.000412446)
(-0.00668898 0.00136885 0.00171922)
(-0.0182408 0.00150696 0.00263866)
(-0.02951 0.00163945 0.00238398)
(-0.0378987 0.00186106 0.000972492)
(-0.0405649 0.00213544 -0.00161471)
(-0.0352944 0.00231098 -0.00480964)
(-0.0224135 0.00221772 -0.00683728)
(-0.00602424 0.00174762 -0.00536697)
(0.00115029 0.000806353 -0.000322169)
(-0.000498302 0.00236892 -0.0001457)
(-0.00611604 0.00348247 0.00200291)
(-0.0168631 0.00381791 0.00293217)
(-0.0274447 0.00417417 0.00275381)
(-0.0354522 0.0048003 0.00150647)
(-0.0382122 0.00560162 -0.00084649)
(-0.0335687 0.00613727 -0.0038457)
(-0.0216676 0.00594324 -0.00587455)
(-0.00622482 0.00468072 -0.00474241)
(0.000845236 0.0021067 -0.000233461)
(-0.000346052 0.00278641 0.000280352)
(-0.00501491 0.00392671 0.00237053)
(-0.0141639 0.00425298 0.00328136)
(-0.0233325 0.00469797 0.00323743)
(-0.0304737 0.00555396 0.00230545)
(-0.0332804 0.00670101 0.000417816)
(-0.0297488 0.00759015 -0.00210871)
(-0.0197393 0.00751105 -0.00403101)
(-0.00628464 0.00591958 -0.00347834)
(0.000362754 0.00251578 -3.71103e-05)
(-0.000141481 0.00185222 0.000596932)
(-0.00342982 0.00230075 0.00232299)
(-0.0101736 0.00238643 0.00309301)
(-0.0171172 0.00271959 0.00319755)
(-0.022748 0.0034849 0.00270654)
(-0.0252594 0.00457868 0.00152378)
(-0.0230102 0.00557273 -0.000205277)
(-0.0157122 0.00575838 -0.00174224)
(-0.00545232 0.00455328 -0.00176006)
(1.12074e-07 0.00168412 0.000245769)
(3.71437e-05 0.000519813 0.000339616)
(-0.00138538 0.000491666 0.00108001)
(-0.00456198 0.000448835 0.00144619)
(-0.00796896 0.000558734 0.00160989)
(-0.0108994 0.00086903 0.00158167)
(-0.0123786 0.0013399 0.00126896)
(-0.0114586 0.00180533 0.000660904)
(-0.00788705 0.00197205 -1.05259e-05)
(-0.00262327 0.00156833 -0.000209531)
(0.000115668 0.000469847 0.000387375)
(-0.000619232 -0.00148342 0.00348515)
(-0.00408827 -0.00191903 0.00700307)
(-0.0101437 -0.00195576 0.00839213)
(-0.0164038 -0.00197873 0.00860244)
(-0.0216723 -0.0021499 0.00773121)
(-0.0243567 -0.0024926 0.00554635)
(-0.0228889 -0.00284824 0.002172)
(-0.0166227 -0.00286389 -0.00131963)
(-0.00681592 -0.00210416 -0.00274546)
(-0.000651519 -0.000323646 -0.000487159)
(-0.00196001 -0.00440953 0.00583244)
(-0.0108794 -0.00622649 0.0133213)
(-0.0253671 -0.00651706 0.0160045)
(-0.0395513 -0.00659698 0.0154281)
(-0.0505388 -0.0069985 0.0119589)
(-0.0551943 -0.00775518 0.00552588)
(-0.0508212 -0.00845041 -0.00290596)
(-0.0366656 -0.00820065 -0.0101888)
(-0.0158126 -0.00612217 -0.0111075)
(-0.00214636 -0.00166275 -0.00288612)
(-0.00306107 -0.00590152 0.00563457)
(-0.0161553 -0.00889688 0.0145068)
(-0.0366822 -0.00946635 0.0174324)
(-0.0559935 -0.0095463 0.015782)
(-0.0700683 -0.00990803 0.00997287)
(-0.0750239 -0.0105817 0.000221977)
(-0.0677965 -0.0110423 -0.011562)
(-0.0479753 -0.0104181 -0.0204841)
(-0.0201734 -0.00791524 -0.0192812)
(-0.00252242 -0.00287626 -0.00516329)
(-0.00380289 -0.0047878 0.0047461)
(-0.019744 -0.00742733 0.0138161)
(-0.0442816 -0.00794483 0.0165593)
(-0.0667301 -0.00797427 0.0139824)
(-0.0823654 -0.00816164 0.00648664)
(-0.0869252 -0.00853412 -0.00540773)
(-0.0773422 -0.00866247 -0.0190676)
(-0.0537648 -0.00804839 -0.0284172)
(-0.0218622 -0.00618471 -0.0250782)
(-0.00235654 -0.00250447 -0.00667732)
(-0.00417408 -0.001817 0.0041152)
(-0.02156 -0.00285018 0.0130982)
(-0.0481033 -0.00305326 0.0156578)
(-0.0720322 -0.00305403 0.012561)
(-0.0882852 -0.0030999 0.00420046)
(-0.0924511 -0.0032042 -0.00870328)
(-0.0815582 -0.00321033 -0.023124)
(-0.0561258 -0.00296279 -0.0324648)
(-0.02236 -0.00229185 -0.0279038)
(-0.00216423 -0.000971786 -0.00738152)
(-0.00417408 0.00181709 0.0041152)
(-0.02156 0.00285024 0.0130982)
(-0.0481033 0.0030533 0.0156578)
(-0.0720322 0.00305406 0.012561)
(-0.0882852 0.00309992 0.00420046)
(-0.0924511 0.00320422 -0.00870328)
(-0.0815582 0.00321034 -0.023124)
(-0.0561258 0.0029628 -0.0324648)
(-0.02236 0.00229185 -0.0279038)
(-0.00216423 0.000971788 -0.00738152)
(-0.00380289 0.00478789 0.00474607)
(-0.0197441 0.0074274 0.013816)
(-0.0442816 0.00794488 0.0165593)
(-0.0667301 0.0079743 0.0139824)
(-0.0823654 0.00816166 0.00648663)
(-0.0869252 0.00853414 -0.00540774)
(-0.0773422 0.00866248 -0.0190676)
(-0.0537649 0.00804839 -0.0284172)
(-0.0218622 0.00618472 -0.0250782)
(-0.00235654 0.00250448 -0.00667732)
(-0.00306109 0.00590165 0.00563451)
(-0.0161553 0.00889696 0.0145068)
(-0.0366822 0.0094664 0.0174324)
(-0.0559935 0.00954633 0.015782)
(-0.0700683 0.00990805 0.00997287)
(-0.0750239 0.0105817 0.000221974)
(-0.0677965 0.0110423 -0.011562)
(-0.0479753 0.0104181 -0.0204841)
(-0.0201734 0.00791524 -0.0192812)
(-0.00252242 0.00287626 -0.00516329)
(-0.00196005 0.00440969 0.00583228)
(-0.0108794 0.00622657 0.0133212)
(-0.0253671 0.00651711 0.0160044)
(-0.0395513 0.00659701 0.0154281)
(-0.0505388 0.00699852 0.0119589)
(-0.0551943 0.00775519 0.00552587)
(-0.0508212 0.00845041 -0.00290596)
(-0.0366656 0.00820065 -0.0101888)
(-0.0158126 0.00612217 -0.0111075)
(-0.00214636 0.00166275 -0.00288612)
(-0.000619317 0.0014835 0.00348471)
(-0.00408842 0.00191907 0.00700293)
(-0.0101438 0.00195578 0.00839207)
(-0.0164039 0.00197874 0.00860241)
(-0.0216724 0.0021499 0.00773119)
(-0.0243567 0.0024926 0.00554634)
(-0.0228889 0.00284825 0.002172)
(-0.0166228 0.00286389 -0.00131963)
(-0.00681593 0.00210416 -0.00274547)
(-0.000651522 0.000323647 -0.00048716)
(-0.00109329 -0.00230658 0.0102066)
(-0.00596211 -0.00306075 0.0183039)
(-0.0138656 -0.00303395 0.0209588)
(-0.022006 -0.00279494 0.0207175)
(-0.0292276 -0.00264228 0.0179334)
(-0.0337229 -0.0027249 0.0122283)
(-0.0332729 -0.00296414 0.00386877)
(-0.0261182 -0.00301006 -0.00495758)
(-0.0126119 -0.00223091 -0.00939604)
(-0.00218404 -5.29326e-05 -0.00463547)
(-0.00347627 -0.00654081 0.0170514)
(-0.0167988 -0.00923032 0.0336082)
(-0.0369239 -0.0092321 0.0384122)
(-0.0562526 -0.0084268 0.0356789)
(-0.0716008 -0.00775442 0.0264626)
(-0.0793506 -0.00758241 0.0108797)
(-0.075768 -0.00772595 -0.00904929)
(-0.0583399 -0.00750268 -0.0269805)
(-0.0287329 -0.00568441 -0.0313611)
(-0.00547181 -0.00095387 -0.0131008)
(-0.00545157 -0.00839832 0.0181756)
(-0.0254705 -0.0124778 0.037605)
(-0.0546243 -0.0125271 0.0424175)
(-0.0812139 -0.0112565 0.0367971)
(-0.100705 -0.0099866 0.0221126)
(-0.108749 -0.00917532 -0.000740663)
(-0.101433 -0.00870398 -0.0277963)
(-0.0765253 -0.00813851 -0.0496192)
(-0.0370072 -0.00640688 -0.0503972)
(-0.00676847 -0.00196967 -0.0196671)
(-0.00679954 -0.00665103 0.0175134)
(-0.0314039 -0.0101184 0.0373777)
(-0.0665057 -0.0101387 0.0414429)
(-0.0973442 -0.0089772 0.0334527)
(-0.118604 -0.00772758 0.0150037)
(-0.125789 -0.00676368 -0.0122132)
(-0.115316 -0.00609499 -0.0429154)
(-0.0856189 -0.00559048 -0.0657821)
(-0.0405982 -0.00455382 -0.0629273)
(-0.00704336 -0.00172873 -0.0237182)
(-0.00747483 -0.00249483 0.0168461)
(-0.0343916 -0.00382964 0.0365523)
(-0.0724216 -0.0038288 0.0400418)
(-0.105169 -0.00335948 0.0307592)
(-0.12697 -0.00284024 0.0104608)
(-0.133392 -0.00241615 -0.0186682)
(-0.121187 -0.00211958 -0.0507118)
(-0.0892273 -0.00193072 -0.0736166)
(-0.0418562 -0.00160788 -0.0687475)
(-0.00703687 -0.000669321 -0.0255307)
(-0.00747483 0.00249489 0.0168461)
(-0.0343916 0.00382969 0.0365523)
(-0.0724216 0.00382883 0.0400418)
(-0.105169 0.0033595 0.0307592)
(-0.12697 0.00284026 0.0104608)
(-0.133392 0.00241617 -0.0186682)
(-0.121187 0.00211959 -0.0507118)
(-0.0892273 0.00193073 -0.0736166)
(-0.0418562 0.00160788 -0.0687475)
(-0.00703687 0.000669323 -0.0255307)
(-0.00679955 0.00665109 0.0175134)
(-0.0314039 0.0101184 0.0373777)
(-0.0665057 0.0101387 0.0414429)
(-0.0973442 0.00897722 0.0334527)
(-0.118604 0.00772759 0.0150037)
(-0.125789 0.00676369 -0.0122132)
(-0.115316 0.00609499 -0.0429154)
(-0.0856189 0.00559048 -0.0657821)
(-0.0405983 0.00455383 -0.0629273)
(-0.00704336 0.00172873 -0.0237182)
(-0.00545158 0.0083984 0.0181755)
(-0.0254706 0.0124779 0.0376049)
(-0.0546243 0.0125271 0.0424175)
(-0.081214 0.0112566 0.0367971)
(-0.100705 0.00998662 0.0221126)
(-0.108749 0.00917533 -0.000740667)
(-0.101433 0.00870398 -0.0277963)
(-0.0765253 0.00813852 -0.0496192)
(-0.0370072 0.00640688 -0.0503972)
(-0.00676847 0.00196967 -0.0196671)
(-0.00347628 0.00654088 0.0170513)
(-0.0167989 0.00923036 0.0336082)
(-0.0369239 0.00923212 0.0384122)
(-0.0562526 0.00842682 0.0356789)
(-0.0716008 0.00775443 0.0264626)
(-0.0793506 0.00758242 0.0108797)
(-0.0757681 0.00772596 -0.0090493)
(-0.0583399 0.00750268 -0.0269805)
(-0.0287329 0.00568441 -0.0313611)
(-0.00547181 0.000953871 -0.0131008)
(-0.00109332 0.00230661 0.0102064)
(-0.00596217 0.00306077 0.0183038)
(-0.0138657 0.00303396 0.0209588)
(-0.0220061 0.00279495 0.0207175)
(-0.0292276 0.00264228 0.0179334)
(-0.0337229 0.0027249 0.0122283)
(-0.0332729 0.00296414 0.00386876)
(-0.0261182 0.00301007 -0.00495759)
(-0.0126119 0.00223091 -0.00939605)
(-0.00218404 5.29332e-05 -0.00463547)
(-0.00145538 -0.00301539 0.0190609)
(-0.00727135 -0.00392092 0.032502)
(-0.0163615 -0.00362113 0.0361686)
(-0.0259544 -0.00286986 0.0350248)
(-0.0353937 -0.00213536 0.0298838)
(-0.0429516 -0.00175107 0.0200154)
(-0.0455905 -0.00184717 0.00532726)
(-0.0394987 -0.00223044 -0.0112508)
(-0.0226211 -0.00197578 -0.0213544)
(-0.00549229 0.000132973 -0.0136512)
(-0.00467529 -0.00834861 0.0319014)
(-0.0213023 -0.0114043 0.0591395)
(-0.0455286 -0.010465 0.0656255)
(-0.0689038 -0.00794902 0.0597762)
(-0.0888466 -0.00530622 0.043725)
(-0.10182 -0.0034698 0.0174167)
(-0.102783 -0.00285738 -0.0170674)
(-0.0858575 -0.00343934 -0.0508274)
(-0.048753 -0.00350305 -0.0638578)
(-0.0117922 -0.000161269 -0.0331374)
(-0.00734139 -0.0104602 0.035168)
(-0.0326594 -0.014906 0.0671339)
(-0.0681713 -0.0135017 0.0732622)
(-0.100257 -0.00967274 0.062542)
(-0.125031 -0.00545497 0.0379111)
(-0.138395 -0.00213538 0.000513309)
(-0.135362 -0.000576523 -0.0451795)
(-0.110234 -0.00115401 -0.0862204)
(-0.061577 -0.00228629 -0.0959385)
(-0.0144818 -0.000657326 -0.0460165)
(-0.0091565 -0.00814518 0.0352974)
(-0.040381 -0.0118272 0.0681281)
(-0.0831564 -0.0105627 0.0728739)
(-0.119958 -0.00719851 0.0583995)
(-0.146243 -0.00344237 0.0283291)
(-0.158203 -0.000398042 -0.0150215)
(-0.151546 0.00101763 -0.0656268)
(-0.121364 0.000446772 -0.108709)
(-0.0670093 -0.000930139 -0.11475)
(-0.0154146 -0.000560186 -0.0531543)
(-0.0100583 -0.0030285 0.0349019)
(-0.0442204 -0.00442637 0.0676042)
(-0.0904746 -0.00391844 0.0713649)
(-0.129223 -0.00259363 0.0549303)
(-0.155697 -0.0011138 0.0223829)
(-0.166452 8.55311e-05 -0.0232745)
(-0.157823 0.000636361 -0.0754207)
(-0.12544 0.000385946 -0.118739)
(-0.0689322 -0.000210077 -0.122807)
(-0.0156955 -0.00021092 -0.0561292)
(-0.0100583 0.00302854 0.0349019)
(-0.0442204 0.0044264 0.0676042)
(-0.0904746 0.00391846 0.0713648)
(-0.129223 0.00259365 0.0549303)
(-0.155697 0.00111381 0.0223829)
(-0.166452 -8.5523e-05 -0.0232745)
(-0.157823 -0.000636356 -0.0754207)
(-0.12544 -0.000385944 -0.118739)
(-0.0689322 0.000210078 -0.122807)
(-0.0156955 0.000210921 -0.0561292)
(-0.0091565 0.00814522 0.0352974)
(-0.040381 0.0118272 0.0681281)
(-0.0831564 0.0105627 0.0728739)
(-0.119958 0.00719853 0.0583995)
(-0.146243 0.00344238 0.0283291)
(-0.158203 0.00039805 -0.0150215)
(-0.151546 -0.00101762 -0.0656268)
(-0.121364 -0.00044677 -0.108709)
(-0.0670093 0.00093014 -0.11475)
(-0.0154146 0.000560188 -0.0531543)
(-0.0073414 0.0104602 0.035168)
(-0.0326594 0.014906 0.0671339)
(-0.0681713 0.0135017 0.0732622)
(-0.100257 0.00967276 0.0625419)
(-0.125031 0.00545498 0.0379111)
(-0.138395 0.00213539 0.000513305)
(-0.135362 0.000576527 -0.0451795)
(-0.110234 0.00115402 -0.0862204)
(-0.061577 0.00228629 -0.0959385)
(-0.0144819 0.000657327 -0.0460165)
(-0.0046753 0.00834864 0.0319014)
(-0.0213023 0.0114043 0.0591395)
(-0.0455286 0.010465 0.0656255)
(-0.0689038 0.00794904 0.0597762)
(-0.0888467 0.00530623 0.043725)
(-0.10182 0.00346981 0.0174166)
(-0.102783 0.00285738 -0.0170675)
(-0.0858575 0.00343934 -0.0508274)
(-0.048753 0.00350306 -0.0638578)
(-0.0117922 0.00016127 -0.0331374)
(-0.00145539 0.0030154 0.0190608)
(-0.00727138 0.00392093 0.0325019)
(-0.0163615 0.00362114 0.0361686)
(-0.0259544 0.00286987 0.0350248)
(-0.0353937 0.00213536 0.0298838)
(-0.0429517 0.00175107 0.0200154)
(-0.0455906 0.00184717 0.00532726)
(-0.0394987 0.00223044 -0.0112509)
(-0.0226211 0.00197578 -0.0213544)
(-0.00549229 -0.000132972 -0.0136512)
(-0.00197815 -0.00355662 0.0298134)
(-0.00849179 -0.00441163 0.0486608)
(-0.0179184 -0.00356446 0.0526033)
(-0.028192 -0.00193984 0.0499483)
(-0.0397705 -0.00019927 0.0421491)
(-0.0515571 0.00111013 0.0278615)
(-0.0597685 0.00142688 0.00577573)
(-0.0577175 0.000454759 -0.0214)
(-0.0392216 -0.000738925 -0.0415141)
(-0.0120906 4.08209e-05 -0.0315967)
(-0.00586159 -0.00966033 0.0497556)
(-0.0247587 -0.0125135 0.0882924)
(-0.0510629 -0.00986477 0.0956189)
(-0.0766727 -0.00461668 0.0859996)
(-0.100603 0.00117558 0.0630033)
(-0.120254 0.00579637 0.0257061)
(-0.129473 0.00760625 -0.0253935)
(-0.118123 0.00536072 -0.0807669)
(-0.078007 0.00104634 -0.111463)
(-0.0232082 0.000120255 -0.0697861)
(-0.00892032 -0.0118553 0.0556956)
(-0.0376698 -0.0159234 0.101184)
(-0.0764497 -0.0120873 0.108018)
(-0.111216 -0.00444571 0.0920605)
(-0.139856 0.0040141 0.0582821)
(-0.159518 0.010731 0.00714612)
(-0.164454 0.0133698 -0.0587153)
(-0.145054 0.0102552 -0.1257)
(-0.0942475 0.00376413 -0.156546)
(-0.0276137 0.000217088 -0.0915305)
(-0.0109454 -0.00909283 0.0569807)
(-0.04624 -0.0123949 0.104005)
(-0.0927367 -0.0090962 0.109091)
(-0.131898 -0.00262033 0.0886254)
(-0.161178 0.00445377 0.0487875)
(-0.178363 0.0099064 -0.00863928)
(-0.179122 0.0117226 -0.0799189)
(-0.155189 0.00886396 -0.150293)
(-0.100312 0.003468 -0.179482)
(-0.0292973 0.000234179 -0.102226)
(-0.0119281 -0.00335347 0.0570597)
(-0.0503997 -0.00459137 0.104115)
(-0.100442 -0.00330329 0.107977)
(-0.141156 -0.000803703 0.0852778)
(-0.169942 0.00189923 0.0429501)
(-0.185305 0.00393885 -0.0165375)
(-0.183923 0.00452248 -0.0891293)
(-0.158302 0.00336768 -0.16015)
(-0.102353 0.00133597 -0.188427)
(-0.0299196 0.000101294 -0.10638)
(-0.0119281 0.0033535 0.0570597)
(-0.0503997 0.00459139 0.104115)
(-0.100442 0.0033033 0.107977)
(-0.141156 0.000803715 0.0852778)
(-0.169942 -0.00189922 0.0429501)
(-0.185305 -0.00393884 -0.0165375)
(-0.183923 -0.00452248 -0.0891293)
(-0.158302 -0.00336768 -0.16015)
(-0.102353 -0.00133597 -0.188427)
(-0.0299196 -0.000101293 -0.10638)
(-0.0109454 0.00909286 0.0569807)
(-0.04624 0.0123949 0.104005)
(-0.0927367 0.00909621 0.109091)
(-0.131898 0.00262034 0.0886254)
(-0.161178 -0.00445376 0.0487875)
(-0.178363 -0.00990639 -0.00863928)
(-0.179122 -0.0117226 -0.0799189)
(-0.155189 -0.00886396 -0.150293)
(-0.100312 -0.003468 -0.179482)
(-0.0292973 -0.000234178 -0.102226)
(-0.00892032 0.0118553 0.0556955)
(-0.0376698 0.0159234 0.101184)
(-0.0764497 0.0120873 0.108018)
(-0.111216 0.00444572 0.0920605)
(-0.139856 -0.00401409 0.0582821)
(-0.159518 -0.010731 0.00714612)
(-0.164454 -0.0133698 -0.0587153)
(-0.145054 -0.0102552 -0.1257)
(-0.0942475 -0.00376413 -0.156546)
(-0.0276137 -0.000217087 -0.0915305)
(-0.0058616 0.00966035 0.0497556)
(-0.0247587 0.0125136 0.0882923)
(-0.051063 0.00986478 0.0956188)
(-0.0766727 0.00461669 0.0859996)
(-0.100603 -0.00117557 0.0630032)
(-0.120254 -0.00579637 0.0257061)
(-0.129473 -0.00760625 -0.0253935)
(-0.118123 -0.00536072 -0.0807669)
(-0.078007 -0.00104633 -0.111463)
(-0.0232082 -0.000120254 -0.0697861)
(-0.00197816 0.00355663 0.0298134)
(-0.0084918 0.00441164 0.0486608)
(-0.0179184 0.00356447 0.0526033)
(-0.028192 0.00193984 0.0499483)
(-0.0397705 0.000199272 0.0421491)
(-0.0515571 -0.00111013 0.0278615)
(-0.0597685 -0.00142688 0.00577572)
(-0.0577175 -0.000454758 -0.0214)
(-0.0392216 0.000738926 -0.0415141)
(-0.0120907 -4.08204e-05 -0.0315967)
(-0.0032905 -0.00396487 0.0426333)
(-0.0106274 -0.00452679 0.0654152)
(-0.0189059 -0.00281037 0.0679048)
(-0.0280571 0.000113427 0.06267)
(-0.0404354 0.00345632 0.0519836)
(-0.0564582 0.00640211 0.0336075)
(-0.0723709 0.00779909 0.00412522)
(-0.0784589 0.00628316 -0.0360301)
(-0.0627126 0.0025106 -0.0717236)
(-0.0229017 -0.000320929 -0.0640108)
(-0.0077791 -0.0105006 0.0702611)
(-0.0280525 -0.0125461 0.118704)
(-0.0530957 -0.0074388 0.125044)
(-0.0768986 0.00147669 0.111037)
(-0.101287 0.0115582 0.0820164)
(-0.125851 0.0201704 0.0355986)
(-0.144686 0.023973 -0.0311289)
(-0.144279 0.0194694 -0.111916)
(-0.110532 0.00820737 -0.17189)
(-0.038889 -0.000807357 -0.130949)
(-0.0108305 -0.0125743 0.0788541)
(-0.0409248 -0.0156013 0.136807)
(-0.0781303 -0.00860093 0.143167)
(-0.11003 0.00363603 0.122531)
(-0.137471 0.0170336 0.082243)
(-0.160148 0.0276443 0.0212419)
(-0.173294 0.0311418 -0.0620054)
(-0.165074 0.0242606 -0.158511)
(-0.124377 0.0100781 -0.225345)
(-0.0436518 -0.000496684 -0.163673)
(-0.0127198 -0.00948253 0.0812504)
(-0.0490805 -0.0119357 0.14166)
(-0.0933874 -0.00616521 0.14649)
(-0.12846 0.00378643 0.121594)
(-0.154884 0.0143327 0.0759318)
(-0.173473 0.0220765 0.00958524)
(-0.181605 0.0237669 -0.0787177)
(-0.169594 0.0176681 -0.179976)
(-0.128018 0.00705147 -0.248818)
(-0.0454211 -0.000201649 -0.178137)
(-0.0135965 -0.00346617 0.0817889)
(-0.0528928 -0.00437977 0.142518)
(-0.100281 -0.00217743 0.146197)
(-0.136147 0.00157954 0.119307)
(-0.161202 0.00547811 0.0717422)
(-0.177181 0.00819686 0.00410007)
(-0.182992 0.00861305 -0.0851289)
(-0.170075 0.00622646 -0.187638)
(-0.129118 0.00242554 -0.25729)
(-0.0461751 -4.04006e-05 -0.183529)
(-0.0135965 0.00346619 0.0817889)
(-0.0528928 0.00437978 0.142518)
(-0.100281 0.00217744 0.146197)
(-0.136147 -0.00157953 0.119307)
(-0.161202 -0.0054781 0.0717422)
(-0.177181 -0.00819686 0.00410007)
(-0.182992 -0.00861305 -0.0851289)
(-0.170075 -0.00622646 -0.187638)
(-0.129118 -0.00242554 -0.25729)
(-0.0461751 4.04014e-05 -0.183529)
(-0.0127198 0.00948254 0.0812504)
(-0.0490805 0.0119358 0.14166)
(-0.0933874 0.00616522 0.14649)
(-0.12846 -0.00378642 0.121594)
(-0.154884 -0.0143327 0.0759318)
(-0.173473 -0.0220765 0.00958524)
(-0.181605 -0.0237669 -0.0787177)
(-0.169594 -0.0176681 -0.179976)
(-0.128018 -0.00705147 -0.248818)
(-0.0454211 0.00020165 -0.178137)
(-0.0108305 0.0125743 0.078854)
(-0.0409248 0.0156014 0.136807)
(-0.0781303 0.00860094 0.143167)
(-0.11003 -0.00363602 0.122531)
(-0.137471 -0.0170336 0.082243)
(-0.160148 -0.0276443 0.0212419)
(-0.173294 -0.0311418 -0.0620054)
(-0.165074 -0.0242606 -0.158511)
(-0.124377 -0.0100781 -0.225345)
(-0.0436518 0.000496685 -0.163673)
(-0.0077791 0.0105006 0.0702611)
(-0.0280525 0.0125461 0.118704)
(-0.0530957 0.00743881 0.125044)
(-0.0768987 -0.00147668 0.111037)
(-0.101287 -0.0115582 0.0820164)
(-0.125851 -0.0201704 0.0355986)
(-0.144686 -0.023973 -0.0311289)
(-0.144279 -0.0194694 -0.111916)
(-0.110532 -0.00820737 -0.17189)
(-0.038889 0.000807357 -0.130949)
(-0.00329051 0.00396488 0.0426333)
(-0.0106274 0.0045268 0.0654152)
(-0.0189059 0.00281037 0.0679048)
(-0.0280571 -0.000113425 0.0626699)
(-0.0404354 -0.00345632 0.0519836)
(-0.0564582 -0.0064021 0.0336075)
(-0.0723709 -0.00779909 0.00412522)
(-0.0784589 -0.00628316 -0.0360301)
(-0.0627126 -0.0025106 -0.0717236)
(-0.0229017 0.000320929 -0.0640108)
(-0.00702824 -0.00458607 0.059562)
(-0.0160856 -0.00469409 0.0812304)
(-0.0199104 -0.001847 0.0787639)
(-0.0239649 0.00267796 0.069042)
(-0.0332677 0.00798871 0.0551943)
(-0.0507076 0.0131534 0.0338039)
(-0.0743924 0.0163586 -0.00121838)
(-0.092491 0.0146548 -0.0545323)
(-0.0877503 0.00728304 -0.110919)
(-0.0362286 -0.00138325 -0.11755)
(-0.0125584 -0.0115036 0.095074)
(-0.0340213 -0.0123821 0.147345)
(-0.0516971 -0.00445403 0.148527)
(-0.0657208 0.0083019 0.128916)
(-0.0818592 0.0228105 0.0956886)
(-0.103336 0.0358718 0.0449288)
(-0.127498 0.0424864 -0.0307541)
(-0.140357 0.0359684 -0.134427)
(-0.127078 0.0158867 -0.233476)
(-0.0500283 -0.00441261 -0.221352)
(-0.0152617 -0.0131639 0.105422)
(-0.0450688 -0.0149225 0.169845)
(-0.0728955 -0.00480086 0.172316)
(-0.0922232 0.0114727 0.147364)
(-0.107933 0.0290367 0.104452)
(-0.123606 0.0430968 0.040751)
(-0.13873 0.0477494 -0.0503953)
(-0.142769 0.0372528 -0.171957)
(-0.12833 0.0143938 -0.285976)
(-0.0509281 -0.00429218 -0.263523)
(-0.0166966 -0.00966617 0.108255)
(-0.0514889 -0.0111772 0.176153)
(-0.084817 -0.00321231 0.177982)
(-0.105548 0.00943199 0.150062)
(-0.118422 0.0224968 0.103441)
(-0.128227 0.0319598 0.0360034)
(-0.137181 0.0336258 -0.0590553)
(-0.137764 0.0245817 -0.186251)
(-0.126201 0.00859968 -0.306213)
(-0.0513818 -0.00271761 -0.280581)
(-0.0173051 -0.00348772 0.108932)
(-0.0543178 -0.00405741 0.17748)
(-0.0898433 -0.00108651 0.178557)
(-0.110521 0.00357965 0.149312)
(-0.121311 0.00827677 0.101659)
(-0.128023 0.0114736 0.033719)
(-0.134589 0.0117264 -0.0618914)
(-0.134809 0.00826484 -0.190899)
(-0.125569 0.00274186 -0.313323)
(-0.0519012 -0.000884207 -0.286882)
(-0.0173051 0.00348774 0.108932)
(-0.0543178 0.00405742 0.17748)
(-0.0898433 0.00108651 0.178557)
(-0.110521 -0.00357964 0.149312)
(-0.121311 -0.00827677 0.101659)
(-0.128023 -0.0114736 0.033719)
(-0.134589 -0.0117264 -0.0618914)
(-0.134809 -0.00826484 -0.190899)
(-0.125569 -0.00274186 -0.313323)
(-0.0519012 0.000884208 -0.286882)
(-0.0166966 0.00966618 0.108255)
(-0.0514889 0.0111772 0.176153)
(-0.084817 0.00321231 0.177982)
(-0.105548 -0.00943198 0.150062)
(-0.118422 -0.0224968 0.103441)
(-0.128227 -0.0319598 0.0360034)
(-0.137181 -0.0336258 -0.0590553)
(-0.137764 -0.0245817 -0.186251)
(-0.126201 -0.00859968 -0.306213)
(-0.0513818 0.00271761 -0.280581)
(-0.0152617 0.0131639 0.105422)
(-0.0450688 0.0149225 0.169845)
(-0.0728955 0.00480086 0.172316)
(-0.0922232 -0.0114727 0.147364)
(-0.107933 -0.0290367 0.104452)
(-0.123606 -0.0430968 0.040751)
(-0.13873 -0.0477494 -0.0503953)
(-0.142769 -0.0372528 -0.171957)
(-0.12833 -0.0143938 -0.285976)
(-0.0509281 0.00429218 -0.263523)
(-0.0125584 0.0115036 0.095074)
(-0.0340213 0.0123821 0.147345)
(-0.0516971 0.00445404 0.148527)
(-0.0657208 -0.0083019 0.128916)
(-0.0818592 -0.0228105 0.0956886)
(-0.103336 -0.0358718 0.0449288)
(-0.127498 -0.0424864 -0.0307541)
(-0.140357 -0.0359684 -0.134427)
(-0.127078 -0.0158867 -0.233476)
(-0.0500283 0.00441261 -0.221352)
(-0.00702824 0.00458607 0.059562)
(-0.0160856 0.00469409 0.0812303)
(-0.0199104 0.001847 0.0787639)
(-0.0239649 -0.00267796 0.069042)
(-0.0332677 -0.00798871 0.0551943)
(-0.0507076 -0.0131534 0.0338039)
(-0.0743924 -0.0163586 -0.00121839)
(-0.092491 -0.0146548 -0.0545323)
(-0.0877503 -0.00728304 -0.110919)
(-0.0362286 0.00138325 -0.11755)
(-0.0164799 -0.00626346 0.0819473)
(-0.0280348 -0.00637273 0.0927339)
(-0.0176064 -0.00253735 0.0809216)
(-0.00829856 0.00345919 0.0645915)
(-0.00689984 0.0104493 0.0476362)
(-0.018595 0.0177116 0.0254545)
(-0.0455043 0.0232767 -0.0112884)
(-0.0762264 0.0218552 -0.0740001)
(-0.0965041 0.010219 -0.153308)
(-0.0418458 -0.00614354 -0.196225)
(-0.0254411 -0.0143739 0.122884)
(-0.0492272 -0.0150726 0.167658)
(-0.0442442 -0.00534981 0.158666)
(-0.0330226 0.00978765 0.131369)
(-0.0255189 0.0269145 0.0962106)
(-0.0282398 0.0432534 0.0484128)
(-0.0458656 0.0537577 -0.0238896)
(-0.0676608 0.0473627 -0.137335)
(-0.0947257 0.0188158 -0.275095)
(-0.035814 -0.0145387 -0.327041)
(-0.0282151 -0.0152153 0.132912)
(-0.0586337 -0.0168833 0.192752)
(-0.0603292 -0.00550409 0.187154)
(-0.0498408 0.0120325 0.156552)
(-0.0372128 0.0309118 0.114395)
(-0.0289462 0.0468485 0.0568306)
(-0.0329178 0.0541354 -0.027258)
(-0.0428123 0.0432626 -0.157108)
(-0.0742404 0.0136336 -0.315528)
(-0.0274028 -0.0126856 -0.36838)
(-0.0292195 -0.0106342 0.135191)
(-0.0629713 -0.0120792 0.199605)
(-0.0680854 -0.00356304 0.194866)
(-0.0573243 0.00929663 0.163073)
(-0.0409781 0.0225496 0.118964)
(-0.0260468 0.0327133 0.059046)
(-0.0231234 0.035867 -0.0278937)
(-0.0289696 0.0266903 -0.163159)
(-0.0657717 0.00727683 -0.32963)
(-0.0256137 -0.00751899 -0.383642)
(-0.0295373 -0.00374429 0.135631)
(-0.0645878 -0.00428715 0.200994)
(-0.0708682 -0.00118347 0.19615)
(-0.0595415 0.00343579 0.163876)
(-0.0412344 0.00806489 0.119449)
(-0.0234579 0.0114138 0.0593828)
(-0.0183229 0.0121599 -0.0279995)
(-0.0238746 0.00871438 -0.165179)
(-0.0638786 0.00221589 -0.334763)
(-0.0258084 -0.00237012 -0.389281)
(-0.0295373 0.0037443 0.135631)
(-0.0645878 0.00428715 0.200994)
(-0.0708682 0.00118347 0.19615)
(-0.0595415 -0.00343579 0.163876)
(-0.0412344 -0.00806489 0.119449)
(-0.0234579 -0.0114138 0.0593828)
(-0.0183229 -0.0121599 -0.0279995)
(-0.0238746 -0.00871438 -0.165179)
(-0.0638786 -0.00221589 -0.334763)
(-0.0258084 0.00237012 -0.389281)
(-0.0292195 0.0106342 0.135191)
(-0.0629713 0.0120792 0.199605)
(-0.0680854 0.00356304 0.194866)
(-0.0573243 -0.00929662 0.163073)
(-0.0409781 -0.0225496 0.118964)
(-0.0260468 -0.0327133 0.059046)
(-0.0231234 -0.035867 -0.0278937)
(-0.0289696 -0.0266903 -0.163159)
(-0.0657717 -0.00727683 -0.32963)
(-0.0256137 0.00751899 -0.383642)
(-0.0282151 0.0152153 0.132912)
(-0.0586337 0.0168833 0.192752)
(-0.0603292 0.00550409 0.187154)
(-0.0498408 -0.0120325 0.156552)
(-0.0372128 -0.0309118 0.114395)
(-0.0289462 -0.0468485 0.0568306)
(-0.0329178 -0.0541354 -0.027258)
(-0.0428123 -0.0432626 -0.157108)
(-0.0742404 -0.0136336 -0.315528)
(-0.0274028 0.0126856 -0.36838)
(-0.0254412 0.0143739 0.122884)
(-0.0492272 0.0150726 0.167658)
(-0.0442442 0.00534981 0.158666)
(-0.0330226 -0.00978765 0.131369)
(-0.0255189 -0.0269145 0.0962106)
(-0.0282398 -0.0432534 0.0484128)
(-0.0458656 -0.0537577 -0.0238896)
(-0.0676608 -0.0473627 -0.137335)
(-0.0947257 -0.0188158 -0.275095)
(-0.035814 0.0145387 -0.327041)
(-0.0164799 0.00626346 0.0819473)
(-0.0280348 0.00637274 0.0927339)
(-0.0176064 0.00253735 0.0809216)
(-0.00829857 -0.00345919 0.0645915)
(-0.00689984 -0.0104493 0.0476362)
(-0.018595 -0.0177116 0.0254545)
(-0.0455043 -0.0232767 -0.0112884)
(-0.0762264 -0.0218552 -0.0740001)
(-0.0965041 -0.010219 -0.153308)
(-0.0418458 0.00614354 -0.196225)
(-0.0238299 -0.0112235 0.150164)
(-0.0201697 -0.0121237 0.0981682)
(0.0283763 -0.00748732 0.0628903)
(0.0627118 -0.000890877 0.0414773)
(0.0834312 0.00653221 0.0249696)
(0.0855294 0.0144094 0.00708913)
(0.0631514 0.0216046 -0.0215234)
(0.025571 0.020777 -0.0790584)
(-0.0421193 0.00502716 -0.174245)
(-0.00680245 -0.0179609 -0.259867)
(-0.0424631 -0.023025 0.209704)
(-0.0413207 -0.0262082 0.169983)
(0.0238217 -0.0167636 0.128394)
(0.0797929 -0.00245825 0.0961107)
(0.124476 0.0138538 0.0662873)
(0.152301 0.0303341 0.0323329)
(0.150386 0.0445155 -0.0171846)
(0.131193 0.0424858 -0.107605)
(0.0402451 0.00981998 -0.25657)
(0.0437842 -0.0321263 -0.369701)
(-0.0477269 -0.0209542 0.219964)
(-0.0508359 -0.0259733 0.190609)
(0.0134359 -0.0171287 0.15209)
(0.074103 -0.00273263 0.118498)
(0.127752 0.0135957 0.0848253)
(0.16954 0.0289443 0.0449827)
(0.181823 0.0400404 -0.0115209)
(0.17698 0.0352521 -0.110631)
(0.0811515 0.00552946 -0.275351)
(0.0632711 -0.0228801 -0.395296)
(-0.04875 -0.0134285 0.221003)
(-0.0536144 -0.0172549 0.194794)
(0.00942911 -0.0112424 0.157825)
(0.0713442 -0.00150965 0.124468)
(0.128067 0.00921258 0.0901956)
(0.175069 0.0187976 0.0489261)
(0.19221 0.0248082 -0.00977715)
(0.191454 0.020687 -0.111796)
(0.0912711 0.00317468 -0.281969)
(0.0663494 -0.0120301 -0.403971)
(-0.0488003 -0.00453477 0.220809)
(-0.0540522 -0.00590588 0.195132)
(0.00873205 -0.00379195 0.158479)
(0.0712313 -0.000422119 0.125249)
(0.129019 0.00320727 0.091054)
(0.177594 0.006351 0.049704)
(0.195837 0.00816547 -0.00954296)
(0.195294 0.00664759 -0.112686)
(0.0924426 0.00105909 -0.284726)
(0.0659869 -0.0035838 -0.407133)
(-0.0488003 0.00453477 0.220809)
(-0.0540522 0.00590588 0.195132)
(0.00873205 0.00379195 0.158479)
(0.0712313 0.000422118 0.125249)
(0.129019 -0.00320727 0.091054)