/*--------------------------------*- C++ -*----------------------------------*\
  =========                 |
  \\      /  F ield         | OpenFOAM: The Open Source CFD Toolbox
   \\    /   O peration     | Website:  https://openfoam.org
    \\  /    A nd           | Version:  9
     \\/     M anipulation  |
\*---------------------------------------------------------------------------*/
FoamFile
{
    format      ascii;
    class       volScalarField;
    location    "0.98";
    object      p;
}
// * * * * * * * * * * * * * * * * * * * * * * * * * * * * * * * * * * * * * //

dimensions      [0 2 -2 0 0 0 0];

internalField   nonuniform List<scalar> 
1000
(
3.10325e-06
-0.00049139
-0.000189722
0.000861947
0.00274242
0.00532601
0.00814992
0.0104478
0.0115148
0.0106543
0.000175236
-0.000738117
-0.000545384
0.000553224
0.00261853
0.00550465
0.00867304
0.01119
0.0121981
0.0107849
0.00096937
-0.000224424
-7.1171e-05
0.0011295
0.0034464
0.00670517
0.010257
0.0129179
0.0136735
0.0115126
0.00183022
0.000448426
0.000587373
0.00189008
0.00443705
0.00803707
0.0118553
0.0145687
0.0150587
0.0122999
0.00237171
0.000900655
0.00103821
0.00240148
0.00507493
0.00884937
0.0128135
0.0155355
0.0158655
0.0127894
0.00237176
0.00090069
0.00103821
0.00240147
0.00507491
0.00884934
0.0128135
0.0155355
0.0158655
0.0127894
0.00183041
0.00044856
0.000587405
0.00189006
0.004437
0.008037
0.0118552
0.0145687
0.0150587
0.0122999
0.000969878
-0.000224117
-7.10604e-05
0.00112951
0.00344634
0.00670508
0.0102569
0.0129178
0.0136734
0.0115125
0.000176433
-0.000737528
-0.000545131
0.000553282
0.00261849
0.00550456
0.00867295
0.0111899
0.0121981
0.0107848
5.7182e-06
-0.000490341
-0.000189263
0.000862054
0.00274238
0.0053259
0.00814981
0.0104477
0.0115147
0.0106543
0.000420792
-1.59108e-05
0.000303595
0.0012211
0.00284619
0.00513383
0.00771811
0.00992722
0.0110155
0.00986723
0.000962449
3.06331e-05
0.000267357
0.00117736
0.00284
0.00522386
0.00795336
0.0102893
0.0113375
0.00953269
0.00220093
0.0008518
0.00101639
0.00192005
0.00365073
0.00618437
0.00914868
0.0115622
0.0124022
0.00984175
0.00338156
0.00171031
0.00180894
0.00270837
0.0045118
0.00721331
0.0103499
0.0127923
0.0134215
0.0103072
0.00408614
0.00224228
0.00230337
0.00320017
0.00504492
0.00784783
0.011071
0.0135145
0.0140185
0.0106297
0.00408617
0.00224229
0.00230336
0.00320016
0.00504489
0.00784781
0.011071
0.0135145
0.0140184
0.0106297
0.00338167
0.00171039
0.00180894
0.00270833
0.00451174
0.00721325
0.0103498
0.0127923
0.0134215
0.0103072
0.00220122
0.000851982
0.00101644
0.00192003
0.00365066
0.00618428
0.0091486
0.0115622
0.0124021
0.0098417
0.000963067
3.097e-05
0.000267489
0.00117736
0.00283993
0.00522376
0.00795326
0.0102892
0.0113374
0.00953263
0.000421868
-1.53695e-05
0.000303836
0.00122114
0.00284613
0.00513373
0.00771799
0.00992712
0.0110154
0.00986713
-0.000931223
-0.00150253
-0.00130999
-0.000604289
0.00083575
0.00314171
0.00609366
0.00900176
0.0107673
0.00945283
-6.47963e-05
-0.00130031
-0.00119344
-0.000489329
0.000992843
0.00342129
0.00657289
0.00965392
0.0113449
0.00887913
0.00170005
-0.000136356
-0.000165032
0.000438288
0.00189121
0.00442359
0.00779172
0.0110042
0.0124956
0.00897894
0.00331433
0.00101462
0.000853
0.00135599
0.00278724
0.00542102
0.00892421
0.0121858
0.0134745
0.00925482
0.00425576
0.001708
0.00146783
0.00191159
0.00333143
0.0060122
0.00957866
0.0128446
0.0140138
0.00946784
0.00425576
0.00170799
0.0014678
0.00191156
0.0033314
0.00601217
0.00957864
0.0128446
0.0140138
0.00946783
0.00331436
0.00101463
0.000852944
0.00135592
0.00278716
0.00542094
0.00892414
0.0121857
0.0134745
0.0092548
0.00170016
-0.000136309
-0.000165075
0.000438216
0.00189111
0.00442349
0.00779164
0.0110041
0.0124956
0.00897892
-6.4526e-05
-0.00130018
-0.00119344
-0.000489406
0.000992729
0.00342117
0.00657279
0.00965385
0.0113449
0.00887909
-0.000930791
-0.00150232
-0.00130993
-0.000604335
0.000835647
0.0031416
0.00609357
0.00900169
0.0107673
0.00945279
-0.00444693
-0.0051464
-0.005136
-0.00471719
-0.00348201
-0.000990537
0.0028195
0.0073213
0.0107944
0.00989614
-0.00325844
-0.00477219
-0.00484957
-0.00441395
-0.00310379
-0.000432088
0.00368247
0.00851754
0.0119197
0.0092808
-0.000963316
-0.00325984
-0.00358334
-0.00340793
-0.0022971
0.000382785
0.00465314
0.00975233
0.0130895
0.00927678
0.00109378
-0.00180361
-0.00236907
-0.00245198
-0.00154049
0.00106526
0.00545315
0.0106797
0.0139161
0.00940867
0.00227819
-0.000939312
-0.00164739
-0.00188079
-0.00107927
0.0014861
0.0058899
0.0111475
0.0143208
0.00952208
0.00227817
-0.000939333
-0.00164742
-0.00188082
-0.0010793
0.00148608
0.00588989
0.0111474
0.0143208
0.00952208
0.00109374
-0.00180366
-0.00236915
-0.00245206
-0.00154057
0.0010652
0.00545312
0.0106796
0.0139161
0.00940868
-0.000963339
-0.00325989
-0.00358343
-0.00340802
-0.00229719
0.00038271
0.00465309
0.00975231
0.0130895
0.00927679
-0.0032584
-0.00477222
-0.00484967
-0.00441407
-0.0031039
-0.000432182
0.00368241
0.0085175
0.0119197
0.0092808
-0.00444685
-0.00514641
-0.00513607
-0.0047173
-0.00348213
-0.000990629
0.00281943
0.00732126
0.0107944
0.00989615
-0.0108071
-0.011461
-0.0115517
-0.0114286
-0.0104548
-0.00769655
-0.00252701
0.00473994
0.0115774
0.0127788
-0.00934323
-0.0109334
-0.0111321
-0.0110107
-0.0099708
-0.00708935
-0.00161891
0.00620229
0.0132077
0.0125524
-0.00663843
-0.00917536
-0.00979921
-0.0102114
-0.00971448
-0.00716024
-0.00170252
0.00656092
0.013892
0.0125545
-0.00425902
-0.00751399
-0.00853924
-0.00944776
-0.00942445
-0.00715392
-0.00179456
0.00668758
0.0142108
0.0126026
-0.00290614
-0.00654
-0.00779599
-0.00898083
-0.00921404
-0.00713647
-0.00182968
0.00671741
0.0143112
0.0126307
-0.00290616
-0.00654003
-0.00779603
-0.00898086
-0.00921406
-0.00713648
-0.00182968
0.00671742
0.0143112
0.0126307
-0.00425909
-0.00751407
-0.00853932
-0.00944784
-0.00942451
-0.00715395
-0.00179457
0.00668759
0.0142108
0.0126027
-0.00663852
-0.00917546
-0.00979932
-0.0102115
-0.00971456
-0.00716029
-0.00170253
0.00656094
0.0138921
0.0125545
-0.00934331
-0.0109335
-0.0111322
-0.0110109
-0.00997091
-0.00708942
-0.00161893
0.0062023
0.0132078
0.0125524
-0.0108071
-0.0114611
-0.0115518
-0.0114287
-0.0104549
-0.0076966
-0.00252703
0.00473995
0.0115775
0.0127789
-0.0206244
-0.0206919
-0.0205103
-0.0205226
-0.0197877
-0.0167863
-0.00987129
0.00148084
0.0143336
0.0209996
-0.0189202
-0.0200659
-0.020076
-0.0202188
-0.0196813
-0.0169582
-0.0102266
0.00164858
0.0151542
0.0213519
-0.0159482
-0.0181837
-0.018872
-0.019956
-0.0204842
-0.0187186
-0.0124887
-9.04999e-05
0.0145066
0.0213617
-0.0133986
-0.0164332
-0.0177163
-0.0195959
-0.0209651
-0.0199281
-0.0140645
-0.00141584
0.0138294
0.0212729
-0.0119726
-0.015421
-0.0170329
-0.0193301
-0.0211145
-0.0203908
-0.0147648
-0.00205696
0.0134547
0.0211943
-0.0119727
-0.015421
-0.0170329
-0.0193302
-0.0211145
-0.0203908
-0.0147648
-0.00205695
0.0134547
0.0211943
-0.0133986
-0.0164333
-0.0177164
-0.0195959
-0.0209652
-0.0199281
-0.0140645
-0.0014158
0.0138294
0.021273
-0.0159483
-0.0181838
-0.0188721
-0.0199561
-0.0204843
-0.0187186
-0.0124887
-9.04559e-05
0.0145067
0.0213618
-0.0189203
-0.0200661
-0.0200762
-0.0202189
-0.0196814
-0.0169582
-0.0102266
0.00164864
0.0151543
0.021352
-0.0206245
-0.0206921
-0.0205104
-0.0205227
-0.0197878
-0.0167863
-0.00987127
0.0014809
0.0143337
0.0209997
-0.0349637
-0.0327041
-0.0312522
-0.0308515
-0.0302066
-0.0270559
-0.0184913
-0.001859
0.0201011
0.0388396
-0.0328202
-0.0319303
-0.0309058
-0.0310076
-0.0311241
-0.0291259
-0.0218226
-0.00537943
0.01775
0.0389469
-0.0295621
-0.0298569
-0.0298095
-0.0313454
-0.0331989
-0.0330169
-0.0270436
-0.0102937
0.0146684
0.0387863
-0.0268996
-0.0280068
-0.0287265
-0.0313411
-0.0344012
-0.0353754
-0.0301863
-0.0132588
0.0127465
0.0386463
-0.0254511
-0.0269669
-0.0280917
-0.0312346
-0.034845
-0.0363202
-0.031479
-0.0145106
0.011913
0.038564
-0.0254511
-0.026967
-0.0280917
-0.0312346
-0.034845
-0.0363202
-0.031479
-0.0145106
0.011913
0.038564
-0.0268996
-0.0280069
-0.0287265
-0.0313411
-0.0344012
-0.0353753
-0.0301863
-0.0132588
0.0127466
0.0386464
-0.0295622
-0.029857
-0.0298096
-0.0313455
-0.0331989
-0.0330169
-0.0270436
-0.0102937
0.0146685
0.0387864
-0.0328203
-0.0319304
-0.0309059
-0.0310076
-0.0311241
-0.0291258
-0.0218225
-0.00537933
0.0177501
0.038947
-0.0349638
-0.0327042
-0.0312522
-0.0308516
-0.0302066
-0.0270559
-0.0184912
-0.00185889
0.0201012
0.0388397
-0.0576211
-0.0470563
-0.0422778
-0.0402066
-0.0390969
-0.0355846
-0.0257109
-0.00316216
0.0302605
0.0731781
-0.0543569
-0.0455856
-0.0416722
-0.0408858
-0.0413654
-0.0401003
-0.0331722
-0.0121668
0.0224885
0.0736426
-0.0501947
-0.0426571
-0.0399292
-0.0411386
-0.0440063
-0.0451811
-0.0403393
-0.0192388
0.0177729
0.0750927
-0.0471007
-0.0403211
-0.0384206
-0.0409201
-0.0452759
-0.0478226
-0.0440463
-0.0226362
0.0157937
0.0764571
-0.0455132
-0.0390982
-0.0376174
-0.0407067
-0.0456874
-0.0487724
-0.045438
-0.0238765
0.0151632
0.0771181
-0.0455133
-0.0390982
-0.0376174
-0.0407067
-0.0456874
-0.0487724
-0.0454379
-0.0238765
0.0151632
0.0771181
-0.0471007
-0.0403211
-0.0384206
-0.0409201
-0.0452759
-0.0478226
-0.0440462
-0.0226361
0.0157937
0.0764571
-0.0501947
-0.0426572
-0.0399292
-0.0411386
-0.0440062
-0.0451811
-0.0403393
-0.0192388
0.017773
0.0750928
-0.0543569
-0.0455857
-0.0416722
-0.0408859
-0.0413654
-0.0401002
-0.0331721
-0.0121666
0.0224886
0.0736427
-0.0576212
-0.0470564
-0.0422778
-0.0402066
-0.0390969
-0.0355845
-0.0257108
-0.00316205
0.0302606
0.0731782
-0.0891186
-0.0612737
-0.0520146
-0.0464017
-0.0436741
-0.0390961
-0.0264016
0.00464351
0.051639
0.150873
-0.0814475
-0.057293
-0.0505865
-0.0474005
-0.0470515
-0.0452133
-0.0362396
-0.00613875
0.0452762
0.162527
-0.0750332
-0.052456
-0.0473117
-0.0466606
-0.0492478
-0.0500635
-0.0431554
-0.0114213
0.0463443
0.171604
-0.0710321
-0.0491505
-0.0449002
-0.0457742
-0.05006
-0.0523395
-0.0462518
-0.0132242
0.0476604
0.177324
-0.0691835
-0.0475686
-0.0437393
-0.0452865
-0.0502742
-0.0531346
-0.0473351
-0.013788
0.0483847
0.17981
-0.0691835
-0.0475686
-0.0437393
-0.0452865
-0.0502742
-0.0531345
-0.047335
-0.013788
0.0483847
0.17981
-0.0710321
-0.0491505
-0.0449002
-0.0457742
-0.0500599
-0.0523394
-0.0462517
-0.0132242
0.0476604
0.177324
-0.0750332
-0.052456
-0.0473118
-0.0466606
-0.0492478
-0.0500634
-0.0431554
-0.0114212
0.0463444
0.171604
-0.0814476
-0.057293
-0.0505866
-0.0474005
-0.0470515
-0.0452133
-0.0362395
-0.00613865
0.0452763
0.162527
-0.0891187
-0.0612737
-0.0520147
-0.0464018
-0.0436741
-0.039096
-0.0264015
0.00464363
0.0516392
0.150873
-0.199346
-0.0739216
-0.0489159
-0.0404656
-0.0361838
-0.0294232
-0.0124996
0.0327557
0.119018
0.32466
-0.187032
-0.0611619
-0.0410811
-0.0370655
-0.036459
-0.0330344
-0.0185043
0.0295906
0.129535
0.35931
-0.17811
-0.0522017
-0.0343941
-0.0334743
-0.0360684
-0.0350252
-0.0214758
0.0297183
0.138872
0.380193
-0.172955
-0.0471264
-0.0303442
-0.0311498
-0.0355762
-0.0358444
-0.0226176
0.0302148
0.143507
0.390234
-0.170689
-0.0449434
-0.0285891
-0.030121
-0.0353179
-0.0361435
-0.0230489
0.0304333
0.145276
0.394062
-0.170689
-0.0449434
-0.0285891
-0.030121
-0.0353179
-0.0361435
-0.0230489
0.0304333
0.145276
0.394062
-0.172955
-0.0471264
-0.0303442
-0.0311498
-0.0355761
-0.0358444
-0.0226175
0.0302149
0.143507
0.390234
-0.17811
-0.0522017
-0.0343941
-0.0334743
-0.0360683
-0.0350251
-0.0214757
0.0297184
0.138872
0.380193
-0.187032
-0.0611619
-0.0410811
-0.0370655
-0.036459
-0.0330343
-0.0185043
0.0295907
0.129535
0.35931
-0.199346
-0.0739216
-0.0489159
-0.0404655
-0.0361837
-0.0294231
-0.0124995
0.0327558
0.119018
0.32466
)
;

boundaryField
{
    top
    {
        type            zeroGradient;
    }
    others
    {
        type            zeroGradient;
    }
}


// ************************************************************************* //
