/*--------------------------------*- C++ -*----------------------------------*\
  =========                 |
  \\      /  F ield         | OpenFOAM: The Open Source CFD Toolbox
   \\    /   O peration     | Website:  https://openfoam.org
    \\  /    A nd           | Version:  9
     \\/     M anipulation  |
\*---------------------------------------------------------------------------*/
FoamFile
{
    format      ascii;
    class       surfaceScalarField;
    location    "0.98";
    object      phi;
}
// * * * * * * * * * * * * * * * * * * * * * * * * * * * * * * * * * * * * * //

dimensions      [0 3 -1 0 0 0 0];

internalField   nonuniform List<scalar> 
2700
(
-5.61934e-08
-1.11057e-07
1.6716e-07
-2.98844e-07
-1.25767e-07
3.68417e-07
-6.24248e-07
-1.26418e-07
4.51821e-07
-9.47142e-07
-1.47594e-07
4.70488e-07
-1.17655e-06
-2.00632e-07
4.3004e-07
-1.21163e-06
-2.79744e-07
3.14821e-07
-9.85154e-07
-3.56336e-07
1.29863e-07
-5.4142e-07
-3.79601e-07
-6.41327e-08
-1.0264e-07
-3.02622e-07
-1.36159e-07
-1.00256e-07
-2.38403e-09
-1.55803e-07
-2.42792e-07
2.87537e-07
-6.86489e-07
-3.24538e-07
7.29458e-07
-1.36227e-06
-3.46104e-07
8.95464e-07
-1.99798e-06
-3.86395e-07
8.74518e-07
-2.41741e-06
-4.69827e-07
6.88621e-07
-2.44168e-06
-5.84717e-07
3.29245e-07
-1.96166e-06
-6.82512e-07
-1.53849e-07
-1.08276e-06
-6.88206e-07
-5.70296e-07
-2.33256e-07
-5.43938e-07
-6.08183e-07
-2.20435e-07
-1.13077e-07
-2.37098e-07
-2.66114e-07
2.6042e-07
-9.68132e-07
-3.79969e-07
7.86465e-07
-1.87195e-06
-4.13495e-07
9.71207e-07
-2.69568e-06
-4.54678e-07
8.92013e-07
-3.20815e-06
-5.30914e-07
5.73555e-07
-3.1872e-06
-6.31668e-07
2.60091e-08
-2.50484e-06
-7.03373e-07
-6.61499e-07
-1.3289e-06
-6.88677e-07
-1.17547e-06
-2.48495e-07
-5.42822e-07
-1.08152e-06
-2.38944e-07
-2.29986e-07
-2.94144e-07
-1.69153e-07
1.97182e-07
-1.15976e-06
-2.48431e-07
7.34078e-07
-2.21182e-06
-2.72478e-07
9.11043e-07
-3.15049e-06
-2.97473e-07
7.8147e-07
-3.70923e-06
-3.40572e-07
3.68393e-07
-3.62897e-06
-3.94753e-07
-3.17171e-07
-2.7954e-06
-4.31034e-07
-1.10592e-06
-1.42299e-06
-4.1583e-07
-1.64525e-06
-2.19273e-07
-3.27684e-07
-1.41886e-06
-1.49987e-07
-3.08229e-07
-3.24127e-07
-1.27428e-12
1.54975e-07
-1.258e-06
-1.32284e-12
6.85444e-07
-2.38366e-06
-1.00052e-12
8.53179e-07
-3.37652e-06
-7.59271e-13
6.95395e-07
-3.95146e-06
-5.13811e-13
2.34362e-07
-3.83604e-06
-3.43565e-13
-5.10174e-07
-2.91997e-06
-2.48115e-13
-1.3471e-06
-1.4501e-06
-1.98045e-13
-1.88569e-06
-1.94447e-07
-1.51335e-13
-1.58334e-06
-1.51397e-13
-3.44435e-07
-3.24127e-07
1.6915e-07
1.54975e-07
-1.258e-06
2.48428e-07
6.85445e-07
-2.38366e-06
2.72476e-07
8.53179e-07
-3.37652e-06
2.97472e-07
6.95395e-07
-3.95146e-06
3.40571e-07
2.34362e-07
-3.83603e-06
3.94753e-07
-5.10174e-07
-2.91997e-06
4.31034e-07
-1.3471e-06
-1.4501e-06
4.15829e-07
-1.88569e-06
-1.94447e-07
3.27684e-07
-1.58334e-06
1.49987e-07
-3.44435e-07
-2.94142e-07
2.66109e-07
1.97184e-07
-1.15976e-06
3.79965e-07
7.34079e-07
-2.21182e-06
4.13493e-07
9.11044e-07
-3.15049e-06
4.54676e-07
7.81471e-07
-3.70923e-06
5.30913e-07
3.68393e-07
-3.62897e-06
6.31668e-07
-3.1717e-07
-2.7954e-06
7.03373e-07
-1.10592e-06
-1.42299e-06
6.88677e-07
-1.64525e-06
-2.19273e-07
5.42821e-07
-1.41886e-06
2.38943e-07
-3.08229e-07
-2.37094e-07
2.42779e-07
2.60424e-07
-9.68128e-07
3.24531e-07
7.86468e-07
-1.87195e-06
3.46101e-07
9.71209e-07
-2.69568e-06
3.86393e-07
8.92014e-07
-3.20815e-06
4.69826e-07
5.73555e-07
-3.1872e-06
5.84716e-07
2.60092e-08
-2.50484e-06
6.82512e-07
-6.61499e-07
-1.3289e-06
6.88206e-07
-1.17547e-06
-2.48495e-07
5.43938e-07
-1.08152e-06
2.20435e-07
-2.29986e-07
-1.55793e-07
1.11026e-07
2.87546e-07
-6.86483e-07
1.25757e-07
7.29463e-07
-1.36226e-06
1.26414e-07
8.95467e-07
-1.99798e-06
1.47593e-07
8.74519e-07
-2.41741e-06
2.00631e-07
6.88622e-07
-2.44168e-06
2.79743e-07
3.29245e-07
-1.96166e-06
3.56336e-07
-1.53849e-07
-1.08275e-06
3.79601e-07
-5.70296e-07
-2.33256e-07
3.02622e-07
-6.08183e-07
1.00256e-07
-1.13077e-07
-5.61634e-08
1.6719e-07
-2.98833e-07
3.68427e-07
-6.24243e-07
4.51824e-07
-9.4714e-07
4.70489e-07
-1.17655e-06
4.3004e-07
-1.21163e-06
3.14821e-07
-9.85154e-07
1.29863e-07
-5.4142e-07
-6.41327e-08
-1.0264e-07
-1.36159e-07
-2.38392e-09
-2.1685e-07
-2.89974e-07
6.73982e-07
-7.168e-07
-3.9003e-07
1.2584e-06
-1.32361e-06
-4.04728e-07
1.46336e-06
-1.90526e-06
-4.09753e-07
1.46189e-06
-2.31336e-06
-4.38189e-07
1.27632e-06
-2.38327e-06
-4.93261e-07
8.77998e-07
-1.99824e-06
-5.46297e-07
2.91133e-07
-1.20133e-06
-5.38129e-07
-3.2292e-07
-3.31356e-07
-3.99815e-07
-6.06315e-07
-8.75568e-08
-2.46183e-07
-6.01923e-07
-5.33246e-07
1.13273e-06
-1.8298e-06
-7.76603e-07
2.34391e-06
-3.24206e-06
-8.20051e-07
2.72305e-06
-4.50491e-06
-8.28254e-07
2.55587e-06
-5.30057e-06
-8.67362e-07
1.91345e-06
-5.32813e-06
-9.40151e-07
8.0369e-07
-4.40678e-06
-1.00172e-06
-6.19767e-07
-2.67335e-06
-9.57728e-07
-1.88413e-06
-8.23087e-07
-7.23534e-07
-2.13473e-06
-2.37494e-07
-7.86226e-07
-9.04233e-07
-5.45438e-07
1.17685e-06
-2.66853e-06
-8.27601e-07
2.60176e-06
-4.62872e-06
-8.81533e-07
2.99287e-06
-6.30228e-06
-8.87243e-07
2.62457e-06
-7.26777e-06
-9.15961e-07
1.58764e-06
-7.17711e-06
-9.70836e-07
-3.39698e-08
-5.82597e-06
-1.00101e-06
-2.01335e-06
-3.4662e-06
-9.38362e-07
-3.55461e-06
-1.03946e-06
-7.17057e-07
-3.51473e-06
-2.76622e-07
-1.23032e-06
-1.10871e-06
-3.36322e-07
1.09678e-06
-3.23415e-06
-5.20362e-07
2.55228e-06
-5.54412e-06
-5.56262e-07
2.89575e-06
-7.45247e-06
-5.5789e-07
2.36046e-06
-8.48073e-06
-5.69977e-07
1.05067e-06
-8.25473e-06
-5.94933e-07
-9.19071e-07
-6.59627e-06
-6.01713e-07
-3.16367e-06
-3.84395e-06
-5.57774e-07
-4.77817e-06
-1.10448e-06
-4.29648e-07
-4.44573e-06
-1.78431e-07
-1.5109e-06
-1.21175e-06
-1.24021e-12
1.03041e-06
-3.51917e-06
-1.68124e-12
2.4725e-06
-5.9995e-06
-1.45026e-12
2.77725e-06
-8.01247e-06
-1.10977e-12
2.15047e-06
-9.05565e-06
-7.68852e-13
7.07565e-07
-8.74435e-06
-5.39448e-13
-1.41641e-06
-6.92663e-06
-3.90969e-13
-3.76654e-06
-3.98789e-06
-3.2126e-13
-5.38221e-06
-1.1153e-06
-2.56797e-13
-4.88558e-06
-1.97513e-13
-1.63817e-06
-1.21175e-06
3.3632e-07
1.03041e-06
-3.51917e-06
5.20358e-07
2.4725e-06
-5.9995e-06
5.56259e-07
2.77725e-06
-8.01247e-06
5.57888e-07
2.15048e-06
-9.05565e-06
5.69976e-07
7.07565e-07
-8.74435e-06
5.94932e-07
-1.41641e-06
-6.92663e-06
6.01712e-07
-3.76654e-06
-3.98789e-06
5.57774e-07
-5.38221e-06
-1.1153e-06
4.29648e-07
-4.88558e-06
1.78431e-07
-1.63817e-06
-1.10871e-06
5.45434e-07
1.09678e-06
-3.23415e-06
8.27597e-07
2.55228e-06
-5.54412e-06
8.8153e-07
2.89575e-06
-7.45246e-06
8.8724e-07
2.36046e-06
-8.48072e-06
9.1596e-07
1.05067e-06
-8.25473e-06
9.70835e-07
-9.19071e-07
-6.59627e-06
1.00101e-06
-3.16367e-06
-3.84395e-06
9.38362e-07
-4.77817e-06
-1.10448e-06
7.17056e-07
-4.44573e-06
2.76621e-07
-1.5109e-06
-9.0423e-07
5.33239e-07
1.17685e-06
-2.66853e-06
7.76598e-07
2.60177e-06
-4.62871e-06
8.20048e-07
2.99287e-06
-6.30228e-06
8.28252e-07
2.62457e-06
-7.26777e-06
8.67361e-07
1.58764e-06
-7.17711e-06
9.4015e-07
-3.39693e-08
-5.82597e-06
1.00172e-06
-2.01335e-06
-3.4662e-06
9.57728e-07
-3.55461e-06
-1.03946e-06
7.23533e-07
-3.51473e-06
2.37494e-07
-1.23032e-06
-6.01918e-07
2.89964e-07
1.13274e-06
-1.82979e-06
3.90025e-07
2.34391e-06
-3.24205e-06
4.04725e-07
2.72305e-06
-4.50491e-06
4.09752e-07
2.55587e-06
-5.30057e-06
4.38189e-07
1.91346e-06
-5.32812e-06
4.93261e-07
8.03691e-07
-4.40678e-06
5.46297e-07
-6.19767e-07
-2.67335e-06
5.38129e-07
-1.88413e-06
-8.23087e-07
3.99815e-07
-2.13473e-06
8.75569e-08
-7.86226e-07
-2.1684e-07
6.73994e-07
-7.16794e-07
1.25841e-06
-1.32361e-06
1.46336e-06
-1.90526e-06
1.46189e-06
-2.31335e-06
1.27632e-06
-2.38327e-06
8.77998e-07
-1.99824e-06
2.91133e-07
-1.20133e-06
-3.2292e-07
-3.31356e-07
-6.06316e-07
-2.46183e-07
-3.29765e-07
-4.40784e-07
1.44453e-06
-9.99486e-07
-5.94567e-07
2.52269e-06
-1.78612e-06
-5.92771e-07
2.84276e-06
-2.55693e-06
-5.43027e-07
2.77573e-06
-3.15479e-06
-5.04425e-07
2.37861e-06
-3.37188e-06
-5.02926e-07
1.59802e-06
-3.003e-06
-5.26277e-07
4.48525e-07
-1.98699e-06
-5.23715e-07
-8.15207e-07
-6.75192e-07
-3.95692e-07
-1.52243e-06
-4.05079e-08
-8.80867e-07
-9.60171e-07
-7.71834e-07
2.42395e-06
-2.71235e-06
-1.11303e-06
4.61455e-06
-4.65065e-06
-1.11463e-06
5.1832e-06
-6.38463e-06
-1.00835e-06
4.75518e-06
-7.55538e-06
-9.09158e-07
3.48893e-06
-7.78572e-06
-8.59441e-07
1.39054e-06
-6.75349e-06
-8.45131e-07
-1.33314e-06
-4.44e-06
-8.06211e-07
-3.91511e-06
-1.59131e-06
-6.24731e-07
-4.75439e-06
-1.55661e-07
-2.26238e-06
-1.46818e-06
-7.66471e-07
2.63966e-06
-4.04523e-06
-1.14406e-06
5.20984e-06
-6.78106e-06
-1.1463e-06
5.76038e-06
-9.08423e-06
-1.02372e-06
4.94311e-06
-1.04805e-05
-8.97753e-07
2.97246e-06
-1.05462e-05
-8.10362e-07
-1.73124e-08
-8.95537e-06
-7.52887e-07
-3.69641e-06
-5.78098e-06
-6.98117e-07
-6.8371e-06
-2.03604e-06
-5.56875e-07
-7.32752e-06
-1.90828e-07
-3.2312e-06
-1.81459e-06
-4.64624e-07
2.60952e-06
-4.94558e-06
-7.05043e-07
5.24424e-06
-8.17877e-06
-7.05473e-07
5.68811e-06
-1.0783e-05
-6.23552e-07
4.56452e-06
-1.22304e-05
-5.35139e-07
2.1355e-06
-1.20967e-05
-4.65467e-07
-1.39769e-06
-1.01104e-05
-4.16824e-07
-5.48609e-06
-6.42375e-06
-3.80847e-07
-8.78205e-06
-2.21082e-06
-3.11608e-07
-8.90393e-06
-1.23644e-07
-3.7889e-06
-1.98856e-06
-9.65316e-13
2.55435e-06
-5.39554e-06
-1.45867e-12
5.17444e-06
-8.86408e-06
-1.28593e-12
5.54032e-06
-1.15916e-05
-1.00967e-12
4.25446e-06
-1.30303e-05
-7.33256e-13
1.61113e-06
-1.27732e-05
-5.2914e-13
-2.13903e-06
-1.05867e-05
-4.12492e-13
-6.36979e-06
-6.67002e-06
-3.64777e-13
-9.67976e-06
-2.26585e-06
-3.29711e-13
-9.60136e-06
-2.46312e-13
-4.02766e-06
-1.98856e-06
4.64622e-07
2.55435e-06
-5.39554e-06
7.0504e-07
5.17444e-06
-8.86408e-06
7.0547e-07
5.54032e-06
-1.15916e-05
6.2355e-07
4.25446e-06
-1.30303e-05
5.35138e-07
1.61113e-06
-1.27732e-05
4.65466e-07
-2.13903e-06
-1.05867e-05
4.16823e-07
-6.36979e-06
-6.67002e-06
3.80846e-07
-9.67976e-06
-2.26585e-06
3.11608e-07
-9.60136e-06
1.23644e-07
-4.02766e-06
-1.81459e-06
7.66468e-07
2.60952e-06
-4.94558e-06
1.14406e-06
5.24425e-06
-8.17877e-06
1.1463e-06
5.68811e-06
-1.0783e-05
1.02372e-06
4.56452e-06
-1.22304e-05
8.97752e-07
2.1355e-06
-1.20967e-05
8.10361e-07
-1.39769e-06
-1.01104e-05
7.52886e-07
-5.48609e-06
-6.42375e-06
6.98117e-07
-8.78205e-06
-2.21082e-06
5.56875e-07
-8.90393e-06
1.90827e-07
-3.7889e-06
-1.46818e-06
7.7183e-07
2.63967e-06
-4.04522e-06
1.11303e-06
5.20985e-06
-6.78106e-06
1.11463e-06
5.76038e-06
-9.08423e-06
1.00835e-06
4.94311e-06
-1.04805e-05
9.09157e-07
2.97246e-06
-1.05462e-05
8.5944e-07
-1.7312e-08
-8.95537e-06
8.45131e-07
-3.69641e-06
-5.78098e-06
8.0621e-07
-6.8371e-06
-2.03604e-06
6.2473e-07
-7.32752e-06
1.55661e-07
-3.2312e-06
-9.60168e-07
4.40781e-07
2.42396e-06
-2.71235e-06
5.94565e-07
4.61455e-06
-4.65064e-06
5.9277e-07
5.18321e-06
-6.38463e-06
5.43026e-07
4.75519e-06
-7.55538e-06
5.04424e-07
3.48893e-06
-7.78572e-06
5.02926e-07
1.39054e-06
-6.75348e-06
5.26277e-07
-1.33314e-06
-4.44e-06
5.23715e-07
-3.91511e-06
-1.59131e-06
3.95691e-07
-4.75439e-06
4.05078e-08
-2.26238e-06
-3.29761e-07
1.44454e-06
-9.99484e-07
2.52269e-06
-1.78612e-06
2.84276e-06
-2.55693e-06
2.77573e-06
-3.15479e-06
2.37861e-06
-3.37188e-06
1.59802e-06
-3.003e-06
4.48525e-07
-1.98699e-06
-8.15207e-07
-6.75192e-07
-1.52243e-06
-8.80867e-07
-4.10782e-07
-5.70159e-07
2.42547e-06
-1.19146e-06
-7.45094e-07
4.04846e-06
-2.10255e-06
-6.85214e-07
4.43907e-06
-3.05265e-06
-5.29406e-07
4.25523e-06
-3.91479e-06
-3.70428e-07
3.61119e-06
-4.44766e-06
-2.69277e-07
2.40016e-06
-4.30637e-06
-2.50509e-07
5.57745e-07
-3.19182e-06
-3.04982e-07
-1.62477e-06
-1.31411e-06
-2.94146e-07
-3.10599e-06
1.41711e-09
-2.1964e-06
-1.23538e-06
-9.72355e-07
4.06153e-06
-3.37429e-06
-1.34955e-06
7.35793e-06
-5.70655e-06
-1.22842e-06
8.05867e-06
-7.86713e-06
-9.0357e-07
7.28993e-06
-9.52886e-06
-5.52686e-07
5.33292e-06
-1.02577e-05
-2.91177e-07
2.14132e-06
-9.50984e-06
-1.79263e-07
-2.15229e-06
-6.8725e-06
-2.38896e-07
-6.61854e-06
-2.85392e-06
-2.99893e-07
-8.76723e-06
-4.69793e-08
-5.0679e-06
-1.90599e-06
-9.47479e-07
4.52078e-06
-5.09277e-06
-1.35408e-06
8.40115e-06
-8.40215e-06
-1.2181e-06
9.05944e-06
-1.12371e-05
-8.55302e-07
7.72978e-06
-1.31686e-05
-4.53507e-07
4.80482e-06
-1.37168e-05
-1.31114e-07
3.70794e-07
-1.23741e-05
1.89359e-08
-5.23728e-06
-8.75941e-06
-3.85779e-08
-1.06521e-05
-3.58447e-06
-1.63573e-07
-1.26388e-05
-6.41365e-08
-6.79851e-06
-2.36102e-06
-5.67335e-07
4.5904e-06
-6.24044e-06
-8.21684e-07
8.59127e-06
-1.01325e-05
-7.31947e-07
9.09398e-06
-1.32793e-05
-4.96247e-07
7.35228e-06
-1.52165e-05
-2.33371e-07
3.85256e-06
-1.55235e-05
-1.8341e-08
-1.2034e-06
-1.37488e-05
8.01824e-08
-7.32207e-06
-9.59994e-06
4.10963e-08
-1.30106e-05
-3.87963e-06
-5.65094e-08
-1.47313e-05
-4.05766e-08
-7.69209e-06
-2.58689e-06
-6.5278e-13
4.5739e-06
-6.80433e-06
-1.07727e-12
8.57021e-06
-1.09592e-05
-9.94385e-13
8.96323e-06
-1.42137e-05
-8.18749e-13
7.01275e-06
-1.61021e-05
-6.43126e-13
3.26611e-06
-1.62515e-05
-5.34626e-13
-2.00795e-06
-1.42705e-05
-4.68524e-13
-8.27058e-06
-9.90446e-06
-4.13282e-13
-1.40047e-05
-3.98089e-06
-3.72263e-13
-1.55814e-05
-2.77424e-13
-8.04912e-06
-2.58689e-06
5.67334e-07
4.5739e-06
-6.80433e-06
8.21681e-07
8.57021e-06
-1.09592e-05
7.31945e-07
8.96323e-06
-1.42137e-05
4.96246e-07
7.01275e-06
-1.61021e-05
2.3337e-07
3.26611e-06
-1.62515e-05
1.834e-08
-2.00795e-06
-1.42705e-05
-8.01833e-08
-8.27058e-06
-9.90446e-06
-4.10971e-08
-1.40047e-05
-3.98089e-06
5.65087e-08
-1.55814e-05
4.0576e-08
-8.04912e-06
-2.36102e-06
9.47478e-07
4.5904e-06
-6.24044e-06
1.35408e-06
8.59127e-06
-1.01325e-05
1.2181e-06
9.09398e-06
-1.32793e-05
8.553e-07
7.35228e-06
-1.52165e-05
4.53506e-07
3.85256e-06
-1.55235e-05
1.31113e-07
-1.2034e-06
-1.37488e-05
-1.89365e-08
-7.32207e-06
-9.59994e-06
3.85774e-08
-1.30106e-05
-3.87963e-06
1.63573e-07
-1.47313e-05
6.41361e-08
-7.69209e-06
-1.90599e-06
9.72353e-07
4.52078e-06
-5.09277e-06
1.34955e-06
8.40115e-06
-8.40215e-06
1.22842e-06
9.05944e-06
-1.12371e-05
9.03569e-07
7.72978e-06
-1.31686e-05
5.52685e-07
4.80482e-06
-1.37168e-05
2.91176e-07
3.70795e-07
-1.23741e-05
1.79263e-07
-5.23728e-06
-8.75941e-06
2.38896e-07
-1.06521e-05
-3.58447e-06
2.99893e-07
-1.26388e-05
4.69792e-08
-6.79851e-06
-1.23538e-06
5.70158e-07
4.06153e-06
-3.37429e-06
7.45092e-07
7.35793e-06
-5.70655e-06
6.85213e-07
8.05867e-06
-7.86713e-06
5.29406e-07
7.28993e-06
-9.52886e-06
3.70428e-07
5.33292e-06
-1.02577e-05
2.69277e-07
2.14132e-06
-9.50984e-06
2.50509e-07
-2.15229e-06
-6.8725e-06
3.04982e-07
-6.61854e-06
-2.85392e-06
2.94146e-07
-8.76723e-06
-1.41725e-09
-5.0679e-06
-4.10781e-07
2.42547e-06
-1.19145e-06
4.04846e-06
-2.10255e-06
4.43907e-06
-3.05264e-06
4.25523e-06
-3.91479e-06
3.61119e-06
-4.44766e-06
2.40016e-06
-4.30637e-06
5.57745e-07
-3.19182e-06
-1.62477e-06
-1.31411e-06
-3.10599e-06
-2.1964e-06
-4.99144e-07
-6.66859e-07
3.59148e-06
-1.33198e-06
-8.26046e-07
5.70734e-06
-2.28565e-06
-6.57082e-07
6.04983e-06
-3.36864e-06
-3.29346e-07
5.66757e-06
-4.54527e-06
4.09815e-08
4.74683e-06
-5.57685e-06
3.21448e-07
3.11029e-06
-5.95015e-06
4.18238e-07
5.12809e-07
-4.98085e-06
2.57417e-07
-2.85149e-06
-2.46791e-06
8.24614e-09
-5.62718e-06
1.12049e-08
-4.67551e-06
-1.4639e-06
-1.11302e-06
5.97158e-06
-3.82944e-06
-1.45978e-06
1.03572e-05
-6.36326e-06
-1.12647e-06
1.10619e-05
-8.82754e-06
-4.65961e-07
9.89083e-06
-1.10125e-05
2.65872e-07
7.29303e-06
-1.24954e-05
8.47344e-07
3.09832e-06
-1.24935e-05
1.07651e-06
-2.81247e-06
-1.0017e-05
8.04577e-07
-9.64223e-06
-4.86283e-06
2.53392e-07
-1.41665e-05
1.47059e-08
-9.93423e-06
-2.22843e-06
-1.06668e-06
6.70288e-06
-5.76579e-06
-1.43536e-06
1.19141e-05
-9.35483e-06
-1.07429e-06
1.25963e-05
-1.25077e-05
-3.62097e-07
1.07788e-05
-1.4934e-05
4.18166e-07
7.07884e-06
-1.6202e-05
1.02818e-06
1.45793e-06
-1.56107e-05
1.25652e-06
-6.00851e-06
-1.22067e-05
9.60747e-07
-1.42123e-05
-5.85498e-06
3.66476e-07
-1.91036e-05
2.12595e-08
-1.266e-05
-2.73459e-06
-6.31562e-07
6.88987e-06
-7.02242e-06
-8.58986e-07
1.23027e-05
-1.1198e-05
-6.27893e-07
1.28231e-05
-1.4601e-05
-1.7663e-07
1.05698e-05
-1.69424e-05
3.12481e-07
6.29966e-06
-1.78724e-05
6.90412e-07
6.43618e-08
-1.68634e-05
8.10926e-07
-7.88546e-06
-1.3031e-05
6.13984e-07
-1.64962e-05
-6.22568e-06
2.44021e-07
-2.14142e-05
1.65249e-08
-1.3913e-05
-2.97982e-06
-4.15315e-13
6.92216e-06
-7.6221e-06
-7.31261e-13
1.23535e-05
-1.20432e-05
-7.19828e-13
1.27565e-05
-1.55002e-05
-6.30712e-13
1.02931e-05
-1.77248e-05
-5.50499e-13
5.80316e-06
-1.84606e-05
-4.73752e-13
-5.81698e-07
-1.72633e-05
-4.16305e-13
-8.657e-06
-1.32935e-05
-3.85295e-13
-1.73605e-05
-6.35369e-06
-3.64968e-13
-2.22772e-05
-2.83921e-13
-1.43863e-05
-2.97982e-06
6.31562e-07
6.92216e-06
-7.6221e-06
8.58984e-07
1.23535e-05
-1.20432e-05
6.27892e-07
1.27565e-05
-1.55002e-05
1.76628e-07
1.02931e-05
-1.77248e-05
-3.12482e-07
5.80316e-06
-1.84606e-05
-6.90413e-07
-5.81698e-07
-1.72633e-05
-8.10927e-07
-8.657e-06
-1.32935e-05
-6.13985e-07
-1.73605e-05
-6.35369e-06
-2.44022e-07
-2.22772e-05
-1.65255e-08
-1.43863e-05
-2.73459e-06
1.06668e-06
6.88987e-06
-7.02242e-06
1.43536e-06
1.23027e-05
-1.1198e-05
1.07429e-06
1.28231e-05
-1.4601e-05
3.62096e-07
1.05698e-05
-1.69424e-05
-4.18167e-07
6.29966e-06
-1.78724e-05
-1.02818e-06
6.43621e-08
-1.68634e-05
-1.25652e-06
-7.88546e-06
-1.3031e-05
-9.60748e-07
-1.64962e-05
-6.22568e-06
-3.66476e-07
-2.14142e-05
-2.12599e-08
-1.3913e-05
-2.22843e-06
1.11302e-06
6.70288e-06
-5.76579e-06
1.45978e-06
1.19141e-05
-9.35483e-06
1.12647e-06
1.25963e-05
-1.25077e-05
4.65961e-07
1.07788e-05
-1.4934e-05
-2.65873e-07
7.07884e-06
-1.6202e-05
-8.47344e-07
1.45793e-06
-1.56107e-05
-1.07651e-06
-6.00851e-06
-1.22067e-05
-8.04577e-07
-1.42123e-05
-5.85498e-06
-2.53392e-07
-1.91036e-05
-1.47062e-08
-1.266e-05
-1.46389e-06
6.66859e-07
5.97158e-06
-3.82944e-06
8.26045e-07
1.03572e-05
-6.36326e-06
6.57081e-07
1.10619e-05
-8.82754e-06
3.29346e-07
9.89083e-06
-1.10125e-05
-4.09818e-08
7.29303e-06
-1.24954e-05
-3.21448e-07
3.09832e-06
-1.24935e-05
-4.18239e-07
-2.81247e-06
-1.0017e-05
-2.57417e-07
-9.64223e-06
-4.86283e-06
-8.24605e-09
-1.41665e-05
-1.1205e-08
-9.93423e-06
-4.99143e-07
3.59148e-06
-1.33198e-06
5.70734e-06
-2.28565e-06
6.04983e-06
-3.36864e-06
5.66757e-06
-4.54527e-06
4.74683e-06
-5.57685e-06
3.11029e-06
-5.95015e-06
5.12809e-07
-4.98085e-06
-2.85149e-06
-2.46791e-06
-5.62718e-06
-4.67551e-06
-6.87105e-07
-7.34802e-07
5.01338e-06
-1.49112e-06
-8.35196e-07
7.34654e-06
-2.32012e-06
-5.02617e-07
7.38145e-06
-3.3795e-06
7.31106e-08
6.65384e-06
-4.79373e-06
7.24655e-07
5.43641e-06
-6.4233e-06
1.29029e-06
3.44958e-06
-7.63096e-06
1.54592e-06
1.74554e-07
-7.25591e-06
1.23785e-06
-4.4644e-06
-4.29397e-06
4.96263e-07
-9.08537e-06
-6.48604e-08
-8.90462e-06
-1.73396e-06
-1.19411e-06
8.16485e-06
-4.10279e-06
-1.44688e-06
1.33377e-05
-6.46913e-06
-8.25596e-07
1.37512e-05
-8.8532e-06
2.59143e-07
1.20889e-05
-1.12883e-05
1.46474e-06
8.98803e-06
-1.3482e-05
2.45231e-06
4.13005e-06
-1.45758e-05
2.83009e-06
-3.00292e-06
-1.30156e-05
2.25146e-06
-1.2216e-05
-7.42926e-06
9.50803e-07
-2.02074e-05
-6.08393e-08
-1.73675e-05
-2.4954e-06
-1.12249e-06
9.12666e-06
-6.02126e-06
-1.39698e-06
1.539e-05
-9.37138e-06
-7.5234e-07
1.58732e-05
-1.23093e-05
3.63826e-07
1.3612e-05
-1.47988e-05
1.56748e-06
9.46566e-06
-1.6606e-05
2.49283e-06
3.22456e-06
-1.70635e-05
2.75244e-06
-5.47334e-06
-1.47801e-05
2.1067e-06
-1.6351e-05
-8.36674e-06
8.67897e-07
-2.5434e-05
-3.28129e-08
-2.10548e-05
-2.9748e-06
-6.56249e-07
9.39843e-06
-7.20565e-06
-8.25216e-07
1.59618e-05
-1.10494e-05
-4.24359e-07
1.63389e-05
-1.40952e-05
2.62272e-07
1.37171e-05
-1.63267e-05
9.82982e-07
9.11572e-06
-1.76787e-05
1.50255e-06
2.40664e-06
-1.77132e-05
1.61192e-06
-6.71045e-06
-1.52014e-05
1.19293e-06
-1.80942e-05
-8.6558e-06
4.76653e-07
-2.75685e-05
-1.10242e-08
-2.25906e-05
-3.19806e-06
-2.73835e-13
9.46397e-06
-7.74683e-06
-4.96488e-13
1.60771e-05
-1.17748e-05
-5.44136e-13
1.63601e-05
-1.47918e-05
-4.99913e-13
1.35723e-05
-1.68289e-05
-4.73812e-13
8.82331e-06
-1.79257e-05
-4.50426e-13
2.01765e-06
-1.78099e-05
-4.24856e-13
-7.16092e-06
-1.52853e-05
-3.83923e-13
-1.86922e-05
-8.76055e-06
-3.61022e-13
-2.83253e-05
-3.13543e-13
-2.31579e-05
-3.19806e-06
6.56249e-07
9.46397e-06
-7.74683e-06
8.25215e-07
1.60771e-05
-1.17748e-05
4.24357e-07
1.63601e-05
-1.47918e-05
-2.62273e-07
1.35723e-05
-1.68289e-05
-9.82983e-07
8.82331e-06
-1.79257e-05
-1.50256e-06
2.01765e-06
-1.78099e-05
-1.61193e-06
-7.16092e-06
-1.52853e-05
-1.19293e-06
-1.86922e-05
-8.76055e-06
-4.76654e-07
-2.83253e-05
1.10237e-08
-2.31579e-05
-2.9748e-06
1.12249e-06
9.39843e-06
-7.20565e-06
1.39698e-06
1.59618e-05
-1.10494e-05
7.52339e-07
1.63389e-05
-1.40952e-05
-3.63827e-07
1.37171e-05
-1.63267e-05
-1.56749e-06
9.11572e-06
-1.76787e-05
-2.49283e-06
2.40664e-06
-1.77132e-05
-2.75245e-06
-6.71045e-06
-1.52014e-05
-2.1067e-06
-1.80942e-05
-8.6558e-06
-8.67898e-07
-2.75685e-05
3.28125e-08
-2.25906e-05
-2.4954e-06
1.19411e-06
9.12666e-06
-6.02126e-06
1.44688e-06
1.539e-05
-9.37138e-06
8.25595e-07
1.58732e-05
-1.23093e-05
-2.59144e-07
1.3612e-05
-1.47988e-05
-1.46474e-06
9.46566e-06
-1.6606e-05
-2.45231e-06
3.22456e-06
-1.70635e-05
-2.83009e-06
-5.47334e-06
-1.47801e-05
-2.25146e-06
-1.6351e-05
-8.36674e-06
-9.50803e-07
-2.5434e-05
6.0839e-08
-2.10548e-05
-1.73396e-06
7.34801e-07
8.16485e-06
-4.10279e-06
8.35196e-07
1.33377e-05
-6.46913e-06
5.02616e-07
1.37512e-05
-8.8532e-06
-7.31109e-08
1.20889e-05
-1.12883e-05
-7.24656e-07
8.98803e-06
-1.3482e-05
-1.29029e-06
4.13005e-06
-1.45758e-05
-1.54592e-06
-3.00292e-06
-1.30156e-05
-1.23785e-06
-1.2216e-05
-7.42926e-06
-4.96263e-07
-2.02074e-05
6.48604e-08
-1.73675e-05
-6.87105e-07
5.01338e-06
-1.49112e-06
7.34654e-06
-2.32012e-06
7.38145e-06
-3.3795e-06
6.65384e-06
-4.79373e-06
5.43641e-06
-6.4233e-06
3.44958e-06
-7.63096e-06
1.74554e-07
-7.25591e-06
-4.4644e-06
-4.29397e-06
-9.08537e-06
-8.90462e-06
-1.21707e-06
-8.28798e-07
7.05925e-06
-1.80857e-06
-8.37937e-07
8.77598e-06
-2.15733e-06
-3.04999e-07
8.03521e-06
-2.80072e-06
5.47502e-07
6.74972e-06
-4.118e-06
1.53065e-06
5.22304e-06
-6.17507e-06
2.45931e-06
3.04733e-06
-8.4295e-06
2.98641e-06
-5.57428e-07
-9.23807e-06
2.59085e-06
-6.24667e-06
-6.51197e-06
1.19918e-06
-1.30107e-05
-2.98656e-07
-1.51179e-05
-2.35437e-06
-1.27496e-06
1.09654e-05
-4.33189e-06
-1.40759e-06
1.58849e-05
-5.83091e-06
-4.82416e-07
1.54276e-05
-7.30466e-06
1.00486e-06
1.31052e-05
-9.15018e-06
2.65257e-06
9.71163e-06
-1.14087e-05
4.04704e-06
4.80089e-06
-1.3485e-05
4.62804e-06
-2.5683e-06
-1.3642e-05
3.75843e-06
-1.32266e-05
-9.28557e-06
1.56528e-06
-2.49299e-05
-4.26969e-07
-2.65248e-05
-2.99511e-06
-1.15946e-06
1.20063e-05
-5.96701e-06
-1.32465e-06
1.8279e-05
-8.20959e-06
-4.13396e-07
1.80467e-05
-9.92395e-06
1.0355e-06
1.52957e-05
-1.14473e-05
2.57117e-06
1.10704e-05
-1.29479e-05
3.74746e-06
5.02471e-06
-1.41721e-05
4.05948e-06
-3.68063e-06
-1.38373e-05
3.08254e-06
-1.60098e-05
-9.45703e-06
1.14709e-06
-2.93961e-05
-3.4906e-07
-3.05897e-05
-3.36265e-06
-6.6485e-07
1.22665e-05
-6.89627e-06
-7.69888e-07
1.89407e-05
-9.46504e-06
-2.20805e-07
1.87151e-05
-1.11081e-05
6.42667e-07
1.5753e-05
-1.21926e-05
1.5265e-06
1.12448e-05
-1.3085e-05
2.15416e-06
4.89241e-06
-1.3848e-05
2.2474e-06
-4.13544e-06
-1.34826e-05
1.62602e-06
-1.70031e-05
-9.40884e-06
5.58784e-07
-3.1054e-05
-1.79161e-07
-3.21694e-05
-3.52335e-06
-2.20553e-13
1.23225e-05
-7.29343e-06
-3.91596e-13
1.90772e-05
-9.96128e-06
-4.69596e-13
1.88071e-05
-1.14987e-05
-4.80893e-13
1.57524e-05
-1.23238e-05
-4.85053e-13
1.11749e-05
-1.29393e-05
-4.58937e-13
4.78734e-06
-1.35711e-05
-4.07891e-13
-4.28177e-06
-1.33037e-05
-3.67613e-13
-1.73335e-05
-9.4185e-06
-3.60893e-13
-3.16517e-05
-3.15217e-13
-3.27555e-05
-3.52335e-06
6.64849e-07
1.23225e-05
-7.29343e-06
7.69888e-07
1.90772e-05
-9.96128e-06
2.20804e-07
1.88071e-05
-1.14987e-05
-6.42668e-07
1.57524e-05
-1.23238e-05
-1.5265e-06
1.11749e-05
-1.29393e-05
-2.15416e-06
4.78734e-06
-1.35711e-05
-2.2474e-06
-4.28177e-06
-1.33037e-05
-1.62602e-06
-1.73335e-05
-9.4185e-06
-5.58785e-07
-3.16517e-05
1.79161e-07
-3.27555e-05
-3.36265e-06
1.15946e-06
1.22665e-05
-6.89627e-06
1.32465e-06
1.89407e-05
-9.46504e-06
4.13395e-07
1.87151e-05
-1.11081e-05
-1.0355e-06
1.57531e-05
-1.21926e-05
-2.57117e-06
1.12448e-05
-1.3085e-05
-3.74746e-06
4.89241e-06
-1.3848e-05
-4.05948e-06
-4.13544e-06
-1.34826e-05
-3.08254e-06
-1.70031e-05
-9.40884e-06
-1.14709e-06
-3.1054e-05
3.4906e-07
-3.21694e-05
-2.99511e-06
1.27496e-06
1.20063e-05
-5.96701e-06
1.40759e-06
1.8279e-05
-8.20959e-06
4.82415e-07
1.80467e-05
-9.92395e-06
-1.00486e-06
1.52957e-05
-1.14473e-05
-2.65257e-06
1.10704e-05
-1.29479e-05
-4.04704e-06
5.02471e-06
-1.41721e-05
-4.62804e-06
-3.68063e-06
-1.38373e-05
-3.75843e-06
-1.60098e-05
-9.45703e-06
-1.56528e-06
-2.93961e-05
4.26969e-07
-3.05897e-05
-2.35437e-06
8.28798e-07
1.09654e-05
-4.33189e-06
8.37937e-07
1.58849e-05
-5.83091e-06
3.04999e-07
1.54276e-05
-7.30466e-06
-5.47502e-07
1.31052e-05
-9.15018e-06
-1.53065e-06
9.71163e-06
-1.14087e-05
-2.45931e-06
4.80089e-06
-1.3485e-05
-2.98641e-06
-2.5683e-06
-1.3642e-05
-2.59085e-06
-1.32266e-05
-9.28557e-06
-1.19918e-06
-2.49299e-05
2.98656e-07
-2.65248e-05
-1.21707e-06
7.05925e-06
-1.80857e-06
8.77598e-06
-2.15733e-06
8.03521e-06
-2.80072e-06
6.74972e-06
-4.118e-06
5.22304e-06
-6.17507e-06
3.04733e-06
-8.4295e-06
-5.57428e-07
-9.23807e-06
-6.24667e-06
-6.51197e-06
-1.30107e-05
-1.51179e-05
-2.46393e-06
-1.08078e-06
1.0604e-05
-2.20836e-06
-1.07234e-06
9.59275e-06
-1.25385e-06
-3.81113e-07
7.46182e-06
-7.04403e-07
6.88669e-07
5.5116e-06
-1.20037e-06
1.91925e-06
3.79976e-06
-3.06768e-06
3.14922e-06
1.76543e-06
-6.14339e-06
4.0289e-06
-1.51062e-06
-8.68228e-06
3.68003e-06
-7.38781e-06
-7.67147e-06
1.61487e-06
-1.56364e-05
-1.01918e-06
-2.17702e-05
-3.99514e-06
-1.52788e-06
1.54076e-05
-4.61554e-06
-1.65292e-06
1.70859e-05
-3.80387e-06
-5.73479e-07
1.48083e-05
-2.84468e-06
1.09224e-06
1.17425e-05
-2.58983e-06
2.94618e-06
8.42985e-06
-3.52013e-06
4.59844e-06
4.28196e-06
-5.69415e-06
5.49578e-06
-1.86115e-06
-8.02136e-06
4.59129e-06
-1.18107e-05
-7.43127e-06
1.61104e-06
-2.55162e-05
-1.39031e-06
-3.35849e-05
-4.59899e-06
-1.30611e-06
1.63835e-05
-5.91666e-06
-1.46629e-06
1.941e-05
-5.43388e-06
-4.67131e-07
1.74576e-05
-4.25475e-06
1.04998e-06
1.41588e-05
-3.19686e-06
2.65355e-06
1.03052e-05
-2.89616e-06
3.95015e-06
5.3723e-06
-3.80171e-06
4.45904e-06
-1.73834e-06
-5.72144e-06
3.4473e-06
-1.29461e-05
-5.98193e-06
1.00976e-06
-2.85344e-05
-1.02767e-06
-3.69343e-05
-4.86055e-06
-7.21649e-07
1.65426e-05
-6.53569e-06
-8.22626e-07
1.99722e-05
-6.18695e-06
-2.40938e-07
1.81401e-05
-4.80745e-06
6.28957e-07
1.47946e-05
-3.23669e-06
1.51463e-06
1.0813e-05
-2.26679e-06
2.18054e-06
5.69212e-06
-2.62901e-06
2.37003e-06
-1.68421e-06
-4.59534e-06
1.74079e-06
-1.33302e-05
-5.47045e-06
4.56853e-07
-2.9626e-05
-4.92851e-07
-3.81746e-05
-4.95409e-06
-2.37373e-13
1.65549e-05
-6.76009e-06
-3.92476e-13
2.00606e-05
-6.43271e-06
-4.3979e-13
1.82388e-05
-4.92789e-06
-4.46146e-13
1.48766e-05
-3.12133e-06
-4.34951e-13
1.08829e-05
-1.90497e-06
-4.2214e-13
5.75152e-06
-2.13799e-06
-3.79888e-13
-1.67872e-06
-4.24456e-06
-3.64591e-13
-1.34862e-05
-5.39253e-06
-3.64023e-13
-3.00469e-05
-3.16732e-13
-3.86409e-05
-4.95409e-06
7.21649e-07
1.65549e-05
-6.76009e-06
8.22626e-07
2.00606e-05
-6.43271e-06
2.40938e-07
1.82388e-05
-4.92789e-06
-6.28958e-07
1.48766e-05
-3.12133e-06
-1.51463e-06
1.08829e-05
-1.90497e-06
-2.18054e-06
5.75152e-06
-2.13799e-06
-2.37003e-06
-1.67872e-06
-4.24456e-06
-1.74079e-06
-1.34862e-05
-5.39253e-06
-4.56854e-07
-3.00469e-05
4.9285e-07
-3.86409e-05
-4.86055e-06
1.30611e-06
1.65426e-05
-6.53569e-06
1.46629e-06
1.99722e-05
-6.18695e-06
4.6713e-07
1.81401e-05
-4.80745e-06
-1.04998e-06
1.47946e-05
-3.23669e-06
-2.65355e-06
1.0813e-05
-2.26679e-06
-3.95015e-06
5.69212e-06
-2.62901e-06
-4.45904e-06
-1.68421e-06
-4.59534e-06
-3.4473e-06
-1.33302e-05
-5.47045e-06
-1.00976e-06
-2.9626e-05
1.02767e-06
-3.81746e-05
-4.59899e-06
1.52788e-06
1.63835e-05
-5.91666e-06
1.65292e-06
1.941e-05
-5.43388e-06
5.73478e-07
1.74576e-05
-4.25475e-06
-1.09224e-06
1.41588e-05
-3.19686e-06
-2.94618e-06
1.03052e-05
-2.89616e-06
-4.59844e-06
5.3723e-06
-3.80171e-06
-5.49578e-06
-1.73834e-06
-5.72144e-06
-4.59129e-06
-1.29461e-05
-5.98193e-06
-1.61104e-06
-2.85344e-05
1.39031e-06
-3.69343e-05
-3.99514e-06
1.08078e-06
1.54076e-05
-4.61554e-06
1.07234e-06
1.70859e-05
-3.80387e-06
3.81113e-07
1.48083e-05
-2.84468e-06
-6.88669e-07
1.17425e-05
-2.58983e-06
-1.91925e-06
8.42985e-06
-3.52013e-06
-3.14922e-06
4.28196e-06
-5.69415e-06
-4.0289e-06
-1.86115e-06
-8.02136e-06
-3.68003e-06
-1.18107e-05
-7.43127e-06
-1.61487e-06
-2.55162e-05
1.01918e-06
-3.35849e-05
-2.46393e-06
1.0604e-05
-2.20836e-06
9.59275e-06
-1.25385e-06
7.46182e-06
-7.04403e-07
5.5116e-06
-1.20037e-06
3.79976e-06
-3.06768e-06
1.76543e-06
-6.14339e-06
-1.51062e-06
-8.68228e-06
-7.38781e-06
-7.67147e-06
-1.56364e-05
-2.17702e-05
-2.66505e-06
-1.85767e-06
1.51267e-05
5.33655e-07
-1.99191e-06
8.38595e-06
4.57898e-06
-1.19841e-06
4.61491e-06
7.44097e-06
-1.40708e-07
2.79031e-06
8.62134e-06
1.10093e-06
1.51846e-06
7.68343e-06
2.38304e-06
3.20304e-07
4.36622e-06
3.54605e-06
-1.73947e-06
-6.12233e-07
3.44195e-06
-5.85131e-06
-3.46869e-06
8.91453e-07
-1.36713e-05
-2.72936e-06
-2.25096e-05
-4.75482e-06
-2.2329e-06
2.05377e-05
-7.36302e-07
-2.67849e-06
1.3754e-05
5.2057e-06
-1.76322e-06
9.43115e-06
1.0358e-05
-2.85941e-07
6.73541e-06
1.40292e-05
1.38011e-06
4.47949e-06
1.55394e-05
3.00783e-06
2.14697e-06
1.40858e-05
4.26121e-06
-1.12271e-06
9.34874e-06
3.82188e-06
-7.45353e-06
3.10622e-06
6.76204e-07
-1.90584e-05
-2.77476e-06
-3.04333e-05
-5.51319e-06
-1.71043e-06
2.13742e-05
-1.68292e-06
-2.169e-06
1.50703e-05
4.42e-06
-1.43261e-06
1.10241e-05
1.02556e-05
-2.24338e-07
8.26163e-06
1.50654e-05
1.11623e-06
5.7592e-06
1.80571e-05
2.351e-06
3.03742e-06
1.79869e-05
3.18501e-06
-5.91918e-07
1.37564e-05
2.73101e-06
-7.6247e-06
5.73529e-06
4.16062e-07
-2.02531e-05
-1.74093e-06
-3.22329e-05
-5.70653e-06
-8.88733e-07
2.14274e-05
-2.0129e-06
-1.1526e-06
1.52621e-05
4.09452e-06
-7.4837e-07
1.13485e-05
1.01437e-05
-9.93241e-08
8.62041e-06
1.53696e-05