/*--------------------------------*- C++ -*----------------------------------*\
  =========                 |
  \\      /  F ield         | OpenFOAM: The Open Source CFD Toolbox
   \\    /   O peration     | Website:  https://openfoam.org
    \\  /    A nd           | Version:  9
     \\/     M anipulation  |
\*---------------------------------------------------------------------------*/
FoamFile
{
    format      ascii;
    class       volScalarField;
    location    "0.4";
    object      p;
}
// * * * * * * * * * * * * * * * * * * * * * * * * * * * * * * * * * * * * * //

dimensions      [0 2 -2 0 0 0 0];

internalField   nonuniform List<scalar> 
1000
(
3.51071e-07
-0.000411747
3.98395e-05
0.00126311
0.003274
0.00591743
0.00875509
0.0110809
0.0122161
0.0114506
0.000174032
-0.000594664
-0.000230079
0.00103619
0.00320406
0.00610389
0.00923807
0.0117605
0.01285
0.0115789
0.000792595
-0.000203875
0.000128551
0.00147356
0.0038384
0.00703907
0.0105013
0.0131766
0.0140906
0.0121806
0.00142856
0.000291233
0.000609685
0.00202567
0.00455818
0.00801884
0.011709
0.0144653
0.0152056
0.0128147
0.00181699
0.000617108
0.000931917
0.00238681
0.00500726
0.00859813
0.0124106
0.0151996
0.0158404
0.0132043
0.00181701
0.000617116
0.000931927
0.00238681
0.00500726
0.00859813
0.0124106
0.0151996
0.0158404
0.0132043
0.00142862
0.000291274
0.000609721
0.00202569
0.00455819
0.00801882
0.011709
0.0144652
0.0152056
0.0128147
0.000792705
-0.000203771
0.000128634
0.00147362
0.00383842
0.00703905
0.0105012
0.0131766
0.0140905
0.0121805
0.000174236
-0.000594477
-0.000229941
0.00103628
0.0032041
0.00610389
0.00923802
0.0117604
0.0128499
0.0115788
7.87423e-07
-0.000411468
4.00144e-05
0.00126322
0.00327406
0.00591744
0.00875506
0.0110809
0.012216
0.0114505
0.000315964
-8.24819e-05
0.000385577
0.00150827
0.00332038
0.00572861
0.00837103
0.0106337
0.0117938
0.0107872
0.000825503
1.85265e-05
0.000420199
0.00153247
0.00336887
0.00585073
0.0086195
0.0109836
0.0121021
0.0104646
0.00181289
0.00067835
0.00103244
0.00215066
0.00404888
0.00665167
0.00962662
0.0120708
0.0130261
0.0107168
0.00268988
0.00133165
0.00164679
0.00277252
0.00473472
0.00747586
0.010596
0.0130841
0.0138855
0.0111009
0.00319216
0.00172372
0.00201788
0.00314754
0.00514497
0.00796497
0.0111612
0.0136661
0.0143809
0.0113674
0.00319217
0.00172372
0.00201788
0.00314754
0.00514496
0.00796495
0.0111611
0.0136661
0.0143809
0.0113674
0.00268991
0.00133167
0.0016468
0.00277252
0.00473471
0.00747582
0.0105959
0.0130841
0.0138854
0.0111009
0.00181297
0.000678411
0.00103249
0.00215068
0.00404888
0.00665163
0.00962657
0.0120708
0.013026
0.0107167
0.000825655
1.86558e-05
0.000420294
0.00153253
0.00336889
0.00585071
0.00861945
0.0109836
0.012102
0.0104645
0.000316206
-8.2292e-05
0.000385707
0.00150835
0.00332041
0.00572859
0.00837099
0.0106337
0.0117937
0.0107871
-0.00095794
-0.00148804
-0.00108529
-7.39554e-05
0.00165394
0.00414536
0.00716157
0.0100609
0.011819
0.01062
-0.000151893
-0.00123896
-0.000907861
9.12621e-05
0.00183996
0.00442208
0.00760148
0.0106503
0.0123435
0.0100623
0.00127606
-0.000280699
-3.27661e-05
0.000916586
0.00266778
0.00535737
0.00872221
0.0118864
0.0134025
0.0101527
0.00249136
0.000613882
0.000787424
0.00169005
0.00344571
0.00622193
0.00972379
0.012945
0.0142923
0.0104036
0.00316923
0.00113335
0.00126465
0.00213981
0.00389818
0.00672296
0.0102882
0.0135266
0.0147791
0.0105976
0.00316923
0.00113335
0.00126465
0.0021398
0.00389817
0.00672295
0.0102882
0.0135266
0.0147791
0.0105976
0.00249136
0.000613873
0.000787419
0.00169004
0.00344569
0.0062219
0.00972375
0.012945
0.0142923
0.0104036
0.00127608
-0.00028069
-3.27578e-05
0.00091658
0.00266776
0.00535733
0.00872216
0.0118864
0.0134024
0.0101527
-0.000151838
-0.00123891
-0.000907828
9.12761e-05
0.00183994
0.00442205
0.00760144
0.0106502
0.0123434
0.0100622
-0.000957848
-0.00148796
-0.00108523
-7.39333e-05
0.00165393
0.00414533
0.00716154
0.0100608
0.0118189
0.0106199
-0.00416948
-0.00481952
-0.00450876
-0.00365768
-0.00202862
0.000685795
0.00451933
0.00888075
0.0122123
0.0113557
-0.00304562
-0.0044074
-0.00417509
-0.00332599
-0.00165393
0.00120037
0.00528558
0.00995961
0.0132318
0.0107417
-0.00112981
-0.00311443
-0.00303575
-0.00234268
-0.000790563
0.00208987
0.00633012
0.0112305
0.0144133
0.0107677
0.000471567
-0.00193866
-0.00200082
-0.00145702
-2.32205e-05
0.00282189
0.00717421
0.0121933
0.015267
0.0109311
0.00135303
-0.00126699
-0.00140976
-0.000952678
0.000414632
0.00324401
0.00762988
0.0126864
0.0156937
0.011063
0.00135303
-0.001267
-0.00140976
-0.000952683
0.000414627
0.003244
0.00762988
0.0126863
0.0156937
0.011063
0.000471557
-0.00193867
-0.00200083
-0.00145704
-2.32407e-05
0.00282187
0.00717418
0.0121933
0.0152669
0.0109311
-0.00112982
-0.00311445
-0.00303577
-0.0023427
-0.000790597
0.00208982
0.00633007
0.0112305
0.0144132
0.0107677
-0.00304562
-0.0044074
-0.00417509
-0.003326
-0.00165396
0.00120034
0.00528554
0.00995956
0.0132317
0.0107417
-0.00416946
-0.0048195
-0.00450874
-0.00365768
-0.00202863
0.000685777
0.0045193
0.00888071
0.0122123
0.0113557
-0.01001
-0.0106298
-0.0103587
-0.00972065
-0.0083008
-0.0053653
-0.000277713
0.00671226
0.0132971
0.0144241
-0.00856531
-0.0100562
-0.00989245
-0.0092846
-0.00785082
-0.00478919
0.000594712
0.00812922
0.014824
0.0141692
-0.00619049
-0.00846872
-0.00860258
-0.00838121
-0.00737018
-0.00459121
0.000785038
0.00871718
0.0156852
0.0142549
-0.00423718
-0.0070498
-0.00744792
-0.00757279
-0.00692355
-0.00439548
0.000917055
0.00905925
0.0161667
0.0143814
-0.00317469
-0.00624893
-0.0067953
-0.00711396
-0.00666258
-0.00426357
0.000994632
0.00920827
0.0163636
0.0144572
-0.00317469
-0.00624893
-0.00679529
-0.00711397
-0.00666258
-0.00426357
0.000994626
0.00920827
0.0163636
0.0144572
-0.00423718
-0.0070498
-0.00744792
-0.0075728
-0.00692358
-0.0043955
0.000917033
0.00905924
0.0161667
0.0143814
-0.0061905
-0.00846873
-0.00860259
-0.00838124
-0.00737022
-0.00459125
0.000785005
0.00871716
0.0156852
0.0142549
-0.00856531
-0.0100562
-0.00989245
-0.00928462
-0.00785085
-0.00478923
0.000594684
0.0081292
0.014824
0.0141692
-0.01001
-0.0106298
-0.0103586
-0.00972067
-0.00830083
-0.00536532
-0.000277739
0.00671223
0.013297
0.0144241
-0.019238
-0.0193319
-0.0188004
-0.018305
-0.0171831
-0.0140818
-0.00735973
0.00362536
0.0160944
0.0225971
-0.0174567
-0.018633
-0.0183138
-0.0179906
-0.0170836
-0.0142444
-0.00764694
0.0038862
0.0169922
0.0229681
-0.0146815
-0.01683
-0.0170581
-0.0175275
-0.0175722
-0.015635
-0.0095307
0.00249342
0.0166069
0.023091
-0.0124497
-0.0152397
-0.015919
-0.0170289
-0.0178391
-0.0165827
-0.0108459
0.00143182
0.0161431
0.0231034
-0.0112542
-0.0143527
-0.0152762
-0.0167299
-0.0179224
-0.0170115
-0.0114518
0.000915982
0.0158791
0.0230813
-0.0112542
-0.0143527
-0.0152762
-0.0167299
-0.0179225
-0.0170115
-0.0114518
0.000915988
0.0158791
0.0230813
-0.0124497
-0.0152397
-0.015919
-0.0170289
-0.0178392
-0.0165828
-0.0108459
0.00143184
0.0161432
0.0231034
-0.0146815
-0.01683
-0.0170581
-0.0175276
-0.0175723
-0.015635
-0.00953069
0.00249344
0.0166069
0.023091
-0.0174567
-0.0186329
-0.0183138
-0.0179906
-0.0170836
-0.0142444
-0.00764694
0.00388622
0.0169923
0.0229681
-0.019238
-0.0193318
-0.0188004
-0.018305
-0.0171831
-0.0140818
-0.00735972
0.00362538
0.0160944
0.0225972
-0.0331283
-0.0310371
-0.029323
-0.028507
-0.0275642
-0.0244015
-0.0160362
0.00014348
0.0216607
0.0401506
-0.0308186
-0.0301654
-0.0289404
-0.02866
-0.0284738
-0.0264271
-0.0192835
-0.00319666
0.0195035
0.0403135
-0.0276032
-0.0281035
-0.0277708
-0.0288155
-0.0303026
-0.0300711
-0.0242753
-0.00788569
0.0166267
0.0402048
-0.0251238
-0.0263428
-0.0266715
-0.0286993
-0.031385
-0.0323556
-0.0273632
-0.0107631
0.0148175
0.0400949
-0.0238285
-0.0253814
-0.0260501
-0.0285655
-0.0318192
-0.0333372
-0.0286954
-0.0120103
0.0140223
0.0400215
-0.0238285
-0.0253814
-0.0260501
-0.0285655
-0.0318193
-0.0333372
-0.0286954
-0.0120103
0.0140223
0.0400215
-0.0251238
-0.0263428
-0.0266715
-0.0286993
-0.031385
-0.0323556
-0.0273632
-0.0107631
0.0148175
0.0400949
-0.0276032
-0.0281035
-0.0277709
-0.0288156
-0.0303026
-0.0300711
-0.0242752
-0.00788563
0.0166267
0.0402049
-0.0308186
-0.0301654
-0.0289405
-0.02866
-0.0284738
-0.026427
-0.0192835
-0.00319661
0.0195035
0.0403136
-0.0331283
-0.0310371
-0.029323
-0.028507
-0.0275643
-0.0244015
-0.0160362
0.000143517
0.0216607
0.0401507
-0.0557273
-0.0454961
-0.0405298
-0.0381168
-0.0367371
-0.0332796
-0.023724
-0.00163321
0.0313234
0.0739236
-0.0522419
-0.0440054
-0.0399741
-0.0388451
-0.0390195
-0.0377671
-0.0310933
-0.010542
0.0236599
0.074308
-0.0480538
-0.0411162
-0.0382671
-0.0390542
-0.0415907
-0.0428498
-0.038321
-0.0177289
0.0188717
0.0755851
-0.0450663
-0.0388558
-0.0367891
-0.0388231
-0.042903
-0.0456622
-0.0422407
-0.021341
0.0167683
0.076797
-0.0435796
-0.0376876
-0.0360032
-0.0386197
-0.0433875
-0.0467851
-0.0438134
-0.0227384
0.0160495
0.0773707
-0.0435797
-0.0376876
-0.0360032
-0.0386197
-0.0433875
-0.0467851
-0.0438134
-0.0227384
0.0160495
0.0773708
-0.0450663
-0.0388558
-0.0367891
-0.0388231
-0.042903
-0.0456622
-0.0422407
-0.0213409
0.0167684
0.076797
-0.0480538
-0.0411162
-0.0382672
-0.0390542
-0.0415907
-0.0428498
-0.0383209
-0.0177289
0.0188718
0.0755852
-0.052242
-0.0440055
-0.0399741
-0.0388452
-0.0390195
-0.037767
-0.0310932
-0.010542
0.02366
0.0743081
-0.0557274
-0.0454962
-0.0405299
-0.0381169
-0.0367371
-0.0332796
-0.023724
-0.00163316
0.0313235
0.0739236
-0.0876637
-0.0601871
-0.0508207
-0.0447983
-0.0417559
-0.0371939
-0.0249586
0.0055447
0.0519591
0.150877
-0.0799128
-0.0564585
-0.0495116
-0.0458997
-0.0451441
-0.0433076
-0.0348521
-0.00535033
0.0453708
0.162297
-0.0735752
-0.0518267
-0.0464504
-0.0452734
-0.0474126
-0.0483056
-0.0420441
-0.0109921
0.0460478
0.171062
-0.0696971
-0.0486615
-0.0441414
-0.0444558
-0.0483567
-0.050838
-0.0454903
-0.0131333
0.0471239
0.176559
-0.0679347
-0.0471416
-0.0430057
-0.0439898
-0.0486656
-0.0518237
-0.0468066
-0.0138984
0.0477104
0.178928
-0.0679347
-0.0471416
-0.0430058
-0.0439898
-0.0486656
-0.0518237
-0.0468066
-0.0138984
0.0477104
0.178928
-0.0696972
-0.0486615
-0.0441415
-0.0444559
-0.0483567
-0.050838
-0.0454903
-0.0131333
0.0471239
0.176559
-0.0735753
-0.0518268
-0.0464505
-0.0452735
-0.0474126
-0.0483056
-0.0420441
-0.0109921
0.0460479
0.171062
-0.0799128
-0.0564586
-0.0495117
-0.0458998
-0.0451441
-0.0433076
-0.0348521
-0.00535026
0.0453709
0.162297
-0.0876638
-0.0601872
-0.0508208
-0.0447983
-0.0417559
-0.0371939
-0.0249586
0.00554476
0.0519592
0.150877
-0.198228
-0.0732065
-0.0480704
-0.0392278
-0.0346004
-0.0278043
-0.0111518
0.0335221
0.119161
0.324481
-0.186059
-0.0608031
-0.040563
-0.036013
-0.0349123
-0.0313717
-0.0172267
0.0301401
0.129379
0.358814
-0.177373
-0.0522198
-0.0342178
-0.0326416
-0.0346734
-0.0335756
-0.0204928
0.0298924
0.138406
0.37942
-0.172408
-0.0473698
-0.0303229
-0.0304149
-0.0343062
-0.0346098
-0.0219458
0.0300728
0.142774
0.389277
-0.170239
-0.0452662
-0.0285941
-0.029398
-0.0341099
-0.0350544
-0.0225702
0.0301122
0.144413
0.393003
-0.170239
-0.0452663
-0.0285941
-0.029398
-0.0341099
-0.0350544
-0.0225702
0.0301122
0.144413
0.393003
-0.172408
-0.0473699
-0.0303229
-0.0304149
-0.0343062
-0.0346098
-0.0219458
0.0300729
0.142774
0.389277
-0.177374
-0.0522199
-0.0342179
-0.0326416
-0.0346734
-0.0335756
-0.0204928
0.0298925
0.138406
0.37942
-0.186059
-0.0608033
-0.0405631
-0.036013
-0.0349123
-0.0313716
-0.0172266
0.0301402
0.129379
0.358814
-0.198228
-0.0732066
-0.0480705
-0.0392278
-0.0346004
-0.0278043
-0.0111518
0.0335221
0.119161
0.324481
)
;

boundaryField
{
    top
    {
        type            zeroGradient;
    }
    others
    {
        type            zeroGradient;
    }
}


// ************************************************************************* //
