/*--------------------------------*- C++ -*----------------------------------*\
  =========                 |
  \\      /  F ield         | OpenFOAM: The Open Source CFD Toolbox
   \\    /   O peration     | Website:  https://openfoam.org
    \\  /    A nd           | Version:  9
     \\/     M anipulation  |
\*---------------------------------------------------------------------------*/
FoamFile
{
    format      ascii;
    class       surfaceScalarField;
    location    "0.4";
    object      phi;
}
// * * * * * * * * * * * * * * * * * * * * * * * * * * * * * * * * * * * * * //

dimensions      [0 3 -1 0 0 0 0];

internalField   nonuniform List<scalar> 
2700
(
-7.28431e-08
-8.33005e-08
1.56134e-07
-3.25064e-07
-8.32384e-08
3.35459e-07
-6.41924e-07
-8.03121e-08
3.97172e-07
-9.41061e-07
-9.74493e-08
3.96587e-07
-1.1454e-06
-1.41151e-07
3.45491e-07
-1.17102e-06
-2.07354e-07
2.32968e-07
-9.57917e-07
-2.75233e-07
6.21335e-08
-5.39058e-07
-3.03095e-07
-1.15764e-07
-1.12546e-07
-2.4707e-07
-1.79442e-07
-7.93309e-08
-3.32156e-08
-1.73485e-07
-1.7269e-07
2.62874e-07
-6.8981e-07
-2.15909e-07
6.48996e-07
-1.31923e-06
-2.25966e-07
7.75072e-07
-1.89332e-06
-2.57098e-07
7.33736e-07
-2.26575e-06
-3.24093e-07
5.55375e-07
-2.28712e-06
-4.18915e-07
2.32928e-07
-1.85611e-06
-5.06936e-07
-1.993e-07
-1.04928e-06
-5.27037e-07
-5.82892e-07
-2.4313e-07
-4.25672e-07
-6.27547e-07
-1.71025e-07
-1.51436e-07
-2.36311e-07
-1.81824e-07
2.45445e-07
-9.10022e-07
-2.4821e-07
7.06012e-07
-1.72028e-06
-2.66764e-07
8.51053e-07
-2.4482e-06
-2.97116e-07
7.67936e-07
-2.90636e-06
-3.56506e-07
4.90575e-07
-2.90773e-06
-4.3844e-07
2.08945e-08
-2.32541e-06
-5.05721e-07
-5.83538e-07
-1.27534e-06
-5.11244e-07
-1.06586e-06
-2.65247e-07
-4.12597e-07
-1.02317e-06
-1.82166e-07
-2.54106e-07
-2.70436e-07
-1.12632e-07
2.01245e-07
-1.03453e-06
-1.59661e-07
6.75547e-07
-1.94939e-06
-1.73346e-07
8.21441e-07
-2.76545e-06
-1.91177e-07
7.10118e-07
-3.27027e-06
-2.24152e-07
3.72467e-07
-3.24538e-06
-2.68182e-07
-1.95145e-07
-2.5621e-06
-3.03288e-07
-8.85711e-07
-1.36286e-06
-3.02519e-07
-1.40797e-06
-2.4776e-07
-2.44527e-07
-1.28317e-06
-1.1303e-07
-3.16896e-07
-2.85219e-07
1.07545e-12
1.72585e-07
-1.09005e-06
6.69195e-13
6.45168e-07
-2.05259e-06
4.47614e-13
7.89191e-07
-2.90863e-06
3.36317e-13
6.64868e-07
-3.43296e-06
2.98581e-13
3.00175e-07
-3.39399e-06
2.71258e-13
-3.07149e-07
-2.65956e-06
2.08934e-13
-1.03772e-06
-1.38987e-06
1.73917e-13
-1.57221e-06
-2.31347e-07
1.58903e-13
-1.40305e-06
1.51977e-13
-3.44378e-07
-2.85219e-07
1.12634e-07
1.72586e-07
-1.09005e-06
1.59663e-07
6.45168e-07
-2.05259e-06
1.73347e-07
7.89191e-07
-2.90863e-06
1.91178e-07
6.64868e-07
-3.43296e-06
2.24153e-07
3.00175e-07
-3.39399e-06
2.68183e-07
-3.07149e-07
-2.65956e-06
3.03289e-07
-1.03772e-06
-1.38987e-06
3.02519e-07
-1.57221e-06
-2.31347e-07
2.44527e-07
-1.40305e-06
1.13031e-07
-3.44378e-07
-2.70436e-07
1.81825e-07
2.01245e-07
-1.03453e-06
2.4821e-07
6.75548e-07
-1.94939e-06
2.66765e-07
8.21441e-07
-2.76545e-06
2.97116e-07
7.10118e-07
-3.27027e-06
3.56507e-07
3.72467e-07
-3.24538e-06
4.3844e-07
-1.95145e-07
-2.5621e-06
5.05721e-07
-8.85711e-07
-1.36286e-06
5.11245e-07
-1.40797e-06
-2.4776e-07
4.12597e-07
-1.28317e-06
1.82166e-07
-3.16896e-07
-2.3631e-07
1.72689e-07
2.45446e-07
-9.10022e-07
2.15909e-07
7.06013e-07
-1.72028e-06
2.25967e-07
8.51054e-07
-2.4482e-06
2.57098e-07
7.67937e-07
-2.90636e-06
3.24093e-07
4.90575e-07
-2.90773e-06
4.18915e-07
2.08945e-08
-2.32541e-06
5.06936e-07
-5.83538e-07
-1.27534e-06
5.27037e-07
-1.06586e-06
-2.65246e-07
4.25673e-07
-1.02317e-06
1.71025e-07
-2.54106e-07
-1.73483e-07
8.32965e-08
2.62876e-07
-6.89809e-07
8.32368e-08
6.48998e-07
-1.31923e-06
8.03119e-08
7.75073e-07
-1.89332e-06
9.74494e-08
7.33736e-07
-2.26575e-06
1.41151e-07
5.55375e-07
-2.28712e-06
2.07354e-07
2.32928e-07
-1.85611e-06
2.75233e-07
-1.993e-07
-1.04928e-06
3.03095e-07
-5.82892e-07
-2.4313e-07
2.4707e-07
-6.27547e-07
7.93308e-08
-1.51436e-07
-7.28408e-08
1.56137e-07
-3.25065e-07
3.35461e-07
-6.41925e-07
3.97173e-07
-9.41063e-07
3.96587e-07
-1.1454e-06
3.45491e-07
-1.17102e-06
2.32968e-07
-9.57918e-07
6.21334e-08
-5.39058e-07
-1.15764e-07
-1.12546e-07
-1.79441e-07
-3.32155e-08
-2.27137e-07
-2.22359e-07
6.05629e-07
-7.29257e-07
-2.76157e-07
1.11374e-06
-1.31385e-06
-2.83493e-07
1.26526e-06
-1.85185e-06
-2.9453e-07
1.22912e-06
-2.21696e-06
-3.27689e-07
1.03829e-06
-2.27121e-06
-3.82897e-07
6.70115e-07
-1.91136e-06
-4.38053e-07
1.4033e-07
-1.16401e-06
-4.39705e-07
-4.23401e-07
-3.34756e-07
-3.28338e-07
-6.80362e-07
-6.34343e-08
-3.04537e-07
-5.83219e-07
-3.81911e-07
1.00565e-06
-1.73569e-06
-5.29925e-07
2.05524e-06
-3.03243e-06
-5.58626e-07
2.34694e-06
-4.17363e-06
-5.80891e-07
2.1613e-06
-4.89241e-06
-6.3408e-07
1.58054e-06
-4.93091e-06
-7.15003e-07
6.03533e-07
-4.11029e-06
-7.88801e-07
-6.69163e-07
-2.52749e-06
-7.71421e-07
-1.83398e-06
-7.98422e-07
-5.87674e-07
-2.09728e-06
-1.85051e-07
-8.28241e-07
-8.14796e-07
-3.71729e-07
1.05006e-06
-2.38471e-06
-5.46124e-07
2.29212e-06
-4.11808e-06
-5.8425e-07
2.61005e-06
-5.60601e-06
-6.07027e-07
2.282e-06
-6.49733e-06
-6.55036e-07
1.40285e-06
-6.48329e-06
-7.257e-07
1.75514e-08
-5.33589e-06
-7.76408e-07
-1.74333e-06
-3.23177e-06
-7.46187e-07
-3.19521e-06
-9.97418e-07
-5.75791e-07
-3.26941e-06
-2.17708e-07
-1.21887e-06
-9.43386e-07
-2.2199e-07
9.94892e-07
-2.75609e-06
-3.35612e-07
2.27774e-06
-4.74016e-06
-3.61636e-07
2.5829e-06
-6.41937e-06
-3.7509e-07
2.15739e-06
-7.39612e-06
-4.01391e-07
1.09558e-06
-7.32163e-06
-4.38853e-07
-5.56478e-07
-5.96485e-06
-4.61985e-07
-2.55692e-06
-3.55446e-06
-4.39759e-07
-4.12479e-06
-1.05721e-06
-3.42222e-07
-4.01399e-06
-1.40374e-07
-1.45144e-06
-9.98467e-07
7.87533e-13
9.49062e-07
-2.92049e-06
1.63719e-14
2.23158e-06
-5.01746e-06
-1.54701e-13
2.52453e-06
-6.78085e-06
-4.33778e-14
2.05317e-06
-7.79179e-06
1.23327e-13
9.09727e-07
-7.68204e-06
2.16952e-13
-8.55757e-07
-6.22381e-06
2.17787e-13
-2.95793e-06
-3.67418e-06
2.1922e-13
-4.5616e-06
-1.06817e-06
1.94678e-13
-4.35128e-06
1.4002e-13
-1.55293e-06
-9.98467e-07
2.21992e-07
9.49062e-07
-2.92049e-06
3.35612e-07
2.23158e-06
-5.01746e-06
3.61635e-07
2.52453e-06
-6.78085e-06
3.7509e-07
2.05317e-06
-7.79179e-06
4.01392e-07
9.09727e-07
-7.68204e-06
4.38853e-07
-8.55757e-07
-6.22381e-06
4.61985e-07
-2.95793e-06
-3.67418e-06
4.3976e-07
-4.5616e-06
-1.06817e-06
3.42223e-07
-4.35128e-06
1.40374e-07
-1.55293e-06
-9.43386e-07
3.71729e-07
9.94893e-07
-2.75609e-06
5.46123e-07
2.27774e-06
-4.74016e-06
5.84249e-07
2.5829e-06
-6.41936e-06
6.07027e-07
2.15739e-06
-7.39612e-06
6.55036e-07
1.09558e-06
-7.32163e-06
7.257e-07
-5.56478e-07
-5.96485e-06
7.76408e-07
-2.55692e-06
-3.55446e-06
7.46188e-07
-4.12479e-06
-1.05721e-06
5.75791e-07
-4.01399e-06
2.17709e-07
-1.45144e-06
-8.14794e-07
3.81911e-07
1.05006e-06
-2.38471e-06
5.29924e-07
2.29213e-06
-4.11808e-06
5.58625e-07
2.61005e-06
-5.60601e-06
5.80891e-07
2.282e-06
-6.49733e-06
6.3408e-07
1.40285e-06
-6.48329e-06
7.15003e-07
1.75514e-08
-5.33589e-06
7.88802e-07
-1.74333e-06
-3.23177e-06
7.71422e-07
-3.19521e-06
-9.97418e-07
5.87674e-07
-3.2694e-06
1.85051e-07
-1.21887e-06
-5.83217e-07
2.22357e-07
1.00565e-06
-1.73569e-06
2.76155e-07
2.05524e-06
-3.03243e-06
2.83493e-07
2.34694e-06
-4.17363e-06
2.9453e-07
2.1613e-06
-4.89241e-06
3.27689e-07
1.58054e-06
-4.93091e-06
3.82897e-07
6.03533e-07
-4.11029e-06
4.38053e-07
-6.69163e-07
-2.52749e-06
4.39705e-07
-1.83398e-06
-7.98422e-07
3.28339e-07
-2.09728e-06
6.34344e-08
-8.28241e-07
-2.27135e-07
6.05629e-07
-7.29256e-07
1.11374e-06
-1.31385e-06
1.26526e-06
-1.85185e-06
1.22912e-06
-2.21696e-06
1.03829e-06
-2.27121e-06
6.70115e-07
-1.91136e-06
1.4033e-07
-1.16401e-06
-4.234e-07
-3.34755e-07
-6.80362e-07
-3.04537e-07
-3.38318e-07
-3.45895e-07
1.28984e-06
-1.01285e-06
-4.40658e-07
2.22892e-06
-1.77667e-06
-4.45272e-07
2.47435e-06
-2.49503e-06
-4.31643e-07
2.37912e-06
-3.03333e-06
-4.31402e-07
2.00799e-06
-3.21512e-06
-4.55856e-07
1.30776e-06
-2.85664e-06
-4.8989e-07
2.71742e-07
-1.89539e-06
-4.87806e-07
-8.96848e-07
-6.51615e-07
-3.64178e-07
-1.55996e-06
-3.33404e-08
-9.22812e-07
-9.11993e-07
-5.68196e-07
2.13994e-06
-2.55342e-06
-7.93441e-07
4.04945e-06
-4.34572e-06
-8.12734e-07
4.5067e-06
-5.93673e-06
-7.84839e-07
4.1055e-06
-7.01757e-06
-7.70473e-07
3.00045e-06
-7.24906e-06
-7.84512e-07
1.16368e-06
-6.31834e-06
-8.0268e-07
-1.2871e-06
-4.18059e-06
-7.68687e-07
-3.69085e-06
-1.5127e-06
-5.86275e-07
-4.54308e-06
-1.41701e-07
-2.23258e-06
-1.30246e-06
-5.36602e-07
2.32092e-06
-3.59263e-06
-7.87391e-07
4.57625e-06
-6.03836e-06
-8.13392e-07
5.05644e-06
-8.13816e-06
-7.81904e-07
4.37886e-06
-9.47837e-06
-7.55298e-07
2.72788e-06
-9.64196e-06
-7.44671e-07
1.41299e-07
-8.27646e-06
-7.32016e-07
-3.17949e-06
-5.39385e-06
-6.82537e-07
-6.16397e-06
-1.91887e-06
-5.31186e-07
-6.79947e-06
-1.76609e-07
-3.10283e-06
-1.52518e-06
-3.1457e-07
2.29804e-06
-4.19671e-06
-4.73708e-07
4.63559e-06
-7.01683e-06
-4.91388e-07
5.08101e-06
-9.3898e-06
-4.70407e-07
4.21886e-06
-1.08423e-05
-4.48992e-07
2.24179e-06
-1.09219e-05
-4.33378e-07
-7.88226e-07
-9.27045e-06
-4.14262e-07
-4.52608e-06
-5.96048e-06
-3.80211e-07
-7.73709e-06
-2.07311e-06
-3.00634e-07
-8.13191e-06
-1.14915e-07
-3.58624e-06
-1.62158e-06
6.94019e-13
2.25607e-06
-4.46444e-06
-1.0254e-13
4.60073e-06
-7.45124e-06
-3.04331e-13
5.01993e-06
-9.94089e-06
-1.91829e-13
4.07241e-06
-1.14331e-05
-1.44575e-14
1.95299e-06
-1.14604e-05
8.35327e-14
-1.26185e-06
-9.67216e-06
9.64663e-14
-5.16045e-06
-6.17409e-06
1.10332e-13
-8.43988e-06
-2.12014e-06
1.04805e-13
-8.70587e-06
9.98807e-14
-3.78798e-06
-1.62158e-06
3.14572e-07
2.25607e-06
-4.46444e-06
4.73708e-07
4.60073e-06
-7.45124e-06
4.91388e-07
5.01993e-06
-9.94089e-06
4.70407e-07
4.07241e-06
-1.14331e-05
4.48992e-07
1.95299e-06
-1.14604e-05
4.33378e-07
-1.26185e-06
-9.67216e-06
4.14263e-07
-5.16045e-06
-6.17409e-06
3.80211e-07
-8.43988e-06
-2.12014e-06
3.00635e-07
-8.70587e-06
1.14916e-07
-3.78798e-06
-1.52518e-06
5.36603e-07
2.29804e-06
-4.19671e-06
7.8739e-07
4.63559e-06
-7.01682e-06
8.13391e-07
5.08101e-06
-9.38979e-06
7.81903e-07
4.21886e-06
-1.08423e-05
7.55298e-07
2.24179e-06
-1.09219e-05
7.44672e-07
-7.88226e-07
-9.27045e-06
7.32016e-07
-4.52608e-06
-5.96048e-06
6.82537e-07
-7.73708e-06
-2.07311e-06
5.31186e-07
-8.13191e-06
1.76609e-07
-3.58624e-06
-1.30245e-06
5.68196e-07
2.32092e-06
-3.59263e-06
7.9344e-07
4.57625e-06
-6.03836e-06
8.12733e-07
5.05644e-06
-8.13816e-06
7.84839e-07
4.37886e-06
-9.47837e-06
7.70473e-07
2.72788e-06
-9.64196e-06
7.84512e-07
1.41299e-07
-8.27646e-06
8.0268e-07
-3.17949e-06
-5.39385e-06
7.68687e-07
-6.16397e-06
-1.91887e-06
5.86275e-07
-6.79947e-06
1.41701e-07
-3.10283e-06
-9.11992e-07
3.45895e-07
2.13994e-06
-2.55342e-06
4.40657e-07
4.04945e-06
-4.34572e-06
4.45271e-07
4.5067e-06
-5.93673e-06
4.31643e-07
4.1055e-06
-7.01757e-06
4.31402e-07
3.00045e-06
-7.24906e-06
4.55856e-07
1.16368e-06
-6.31834e-06
4.8989e-07
-1.2871e-06
-4.18059e-06
4.87806e-07
-3.69085e-06
-1.5127e-06
3.64179e-07
-4.54308e-06
3.33404e-08
-2.23258e-06
-3.38317e-07
1.28984e-06
-1.01285e-06
2.22892e-06
-1.77667e-06
2.47435e-06
-2.49503e-06
2.37912e-06
-3.03333e-06
2.00799e-06
-3.21512e-06
1.30776e-06
-2.85664e-06
2.71742e-07
-1.89539e-06
-8.96848e-07
-6.51615e-07
-1.55996e-06
-9.22812e-07
-4.35189e-07
-4.67121e-07
2.19215e-06
-1.2467e-06
-5.88365e-07
3.6288e-06
-2.15374e-06
-5.65518e-07
3.94692e-06
-3.05185e-06
-4.91622e-07
3.76884e-06
-3.83333e-06
-4.1308e-07
3.20255e-06
-4.2948e-06
-3.62516e-07
2.13175e-06
-4.12425e-06
-3.52255e-07
4.5345e-07
-3.0489e-06
-3.77827e-07
-1.59437e-06
-1.25624e-06
-3.25352e-07
-3.02727e-06
-9.28352e-09
-2.16977e-06
-1.20175e-06
-7.51067e-07
3.62564e-06
-3.25783e-06
-1.02681e-06
6.54397e-06
-5.47281e-06
-9.89059e-07
7.14523e-06
-7.50668e-06
-8.38171e-07
6.48591e-06
-9.06815e-06
-6.60241e-07
4.80908e-06
-9.7542e-06
-5.07904e-07
1.99513e-06
-9.04735e-06
-4.17697e-07
-1.92851e-06
-6.54599e-06
-4.17133e-07
-6.15291e-06
-2.7255e-06
-3.90103e-07
-8.29881e-06
-7.70902e-08
-4.89027e-06
-1.73402e-06
-6.97113e-07
4.00099e-06
-4.64429e-06
-9.96301e-07
7.456e-06
-7.70139e-06
-9.60224e-07
8.0847e-06
-1.03853e-05
-7.96738e-07
7.02137e-06
-1.22885e-05
-5.92517e-07
4.56329e-06
-1.29159e-05
-3.95922e-07
6.56705e-07
-1.17205e-05
-2.67042e-07
-4.5255e-06
-8.32177e-06
-2.50864e-07
-9.72897e-06
-3.40955e-06
-2.72671e-07
-1.18291e-05
-9.80674e-08
-6.4914e-06
-2.03979e-06
-4.0383e-07
4.04454e-06
-5.45146e-06
-5.90849e-07
7.64181e-06
-8.98304e-06
-5.69113e-07
8.22148e-06
-1.19968e-05
-4.65203e-07
6.90111e-06
-1.40171e-05
-3.32206e-07
4.00179e-06
-1.45341e-05
-2.0077e-07
-4.66402e-07
-1.30017e-05
-1.09453e-07
-6.2161e-06
-9.11198e-06
-9.77918e-08
-1.17799e-05
-3.68035e-06
-1.27881e-07
-1.37083e-05
-6.21914e-08
-7.30246e-06
-2.17173e-06
5.88939e-13
4.02397e-06
-5.80633e-06
-1.09913e-13
7.64447e-06
-9.54431e-06
-3.59477e-13
8.1888e-06
-1.26911e-05
-3.20474e-13
6.75399e-06
-1.47426e-05
-1.778e-13
3.67225e-06
-1.51848e-05
-8.30971e-14
-1.0204e-06
-1.3494e-05
-2.3326e-14
-6.96065e-06
-9.4006e-06
3.03754e-14
-1.26311e-05
-3.77147e-06
4.74539e-14
-1.44629e-05
1.00123e-13
-7.62165e-06
-2.17173e-06
4.03831e-07
4.02397e-06
-5.80633e-06
5.90849e-07
7.64447e-06
-9.54431e-06
5.69112e-07
8.1888e-06
-1.26911e-05
4.65202e-07
6.75399e-06
-1.47426e-05
3.32205e-07
3.67225e-06
-1.51848e-05
2.00769e-07
-1.0204e-06
-1.3494e-05
1.09453e-07
-6.96065e-06
-9.4006e-06
9.77919e-08
-1.26311e-05
-3.77147e-06
1.27881e-07
-1.44629e-05
6.21916e-08
-7.62165e-06
-2.03979e-06
6.97114e-07
4.04454e-06
-5.45146e-06
9.963e-07
7.64181e-06
-8.98304e-06
9.60224e-07
8.22148e-06
-1.19968e-05
7.96737e-07
6.90111e-06
-1.40171e-05
5.92517e-07
4.00179e-06
-1.45341e-05
3.95922e-07
-4.66402e-07
-1.30017e-05
2.67042e-07
-6.2161e-06
-9.11198e-06
2.50864e-07
-1.17799e-05
-3.68035e-06
2.72671e-07
-1.37083e-05
9.80676e-08
-7.30246e-06
-1.73402e-06
7.51068e-07
4.00099e-06
-4.64428e-06
1.02681e-06
7.456e-06
-7.70138e-06
9.89059e-07
8.0847e-06
-1.03853e-05
8.38171e-07
7.02137e-06
-1.22885e-05
6.60241e-07
4.56329e-06
-1.29159e-05
5.07904e-07
6.56706e-07
-1.17205e-05
4.17697e-07
-4.5255e-06
-8.32177e-06
4.17133e-07
-9.72896e-06
-3.40955e-06
3.90103e-07
-1.18291e-05
7.70904e-08
-6.4914e-06
-1.20175e-06
4.6712e-07
3.62564e-06
-3.25782e-06
5.88365e-07
6.54397e-06
-5.47281e-06
5.65517e-07
7.14523e-06
-7.50668e-06
4.91622e-07
6.48591e-06
-9.06815e-06
4.1308e-07
4.80908e-06
-9.7542e-06
3.62516e-07
1.99513e-06
-9.04735e-06
3.52255e-07
-1.92851e-06
-6.54599e-06
3.77827e-07
-6.1529e-06
-2.7255e-06
3.25352e-07
-8.29881e-06
9.2835e-09
-4.89027e-06
-4.35189e-07
2.19215e-06
-1.2467e-06
3.6288e-06
-2.15374e-06
3.94692e-06
-3.05185e-06
3.76884e-06
-3.83333e-06
3.20255e-06
-4.2948e-06
2.13175e-06
-4.12425e-06
4.53451e-07
-3.0489e-06
-1.59437e-06
-1.25624e-06
-3.02727e-06
-2.16977e-06
-5.55363e-07
-5.8153e-07
3.32904e-06
-1.46663e-06
-7.05559e-07
5.24562e-06
-2.452e-06
-6.09467e-07
5.54175e-06
-3.49216e-06
-4.05365e-07
5.21437e-06
-4.56266e-06
-1.53867e-07
4.42692e-06
-5.47999e-06
8.13386e-08
2.96775e-06
-5.77767e-06
1.93471e-07
5.57662e-07
-4.81692e-06
1.06971e-07
-2.6621e-06
-2.3826e-06
-7.62945e-08
-5.38529e-06
-8.27572e-09
-4.5441e-06
-1.49923e-06
-9.17451e-07
5.46079e-06
-3.88217e-06
-1.20309e-06
9.42445e-06
-6.38667e-06
-1.02847e-06
1.00687e-05
-8.77078e-06
-6.29706e-07
9.09436e-06
-1.08483e-05
-1.27778e-07
6.86052e-06
-1.22213e-05
3.48766e-07
3.10066e-06
-1.21599e-05
6.2081e-07
-2.41726e-06
-9.71927e-06
4.97668e-07
-8.98419e-06
-4.71504e-06
1.06077e-07
-1.34854e-05
-2.66036e-08
-9.58698e-06
-2.14339e-06
-8.38709e-07
6.06564e-06
-5.5371e-06
-1.14654e-06
1.07932e-05
-9.01116e-06
-9.71041e-07
1.15013e-05
-1.21162e-05
-5.55325e-07
1.0052e-05
-1.4545e-05
-2.44312e-08
6.8888e-06
-1.5826e-05
4.80668e-07
1.80581e-06
-1.52447e-05
7.72332e-07
-5.25831e-06
-1.18896e-05
6.48052e-07
-1.32345e-05
-5.68094e-06
2.21137e-07
-1.81528e-05
-2.1556e-08
-1.21774e-05
-2.50689e-06
-4.80771e-07
6.1935e-06
-6.48249e-06
-6.71775e-07
1.11426e-05
-1.04813e-05
-5.64905e-07
1.18142e-05
-1.39128e-05
-3.07817e-07
1.00851e-05
-1.64068e-05
2.16508e-08
6.44963e-06
-1.74898e-05
3.33893e-07
7.63443e-07
-1.65435e-05
5.0916e-07
-6.89926e-06
-1.27386e-05
4.26917e-07
-1.53637e-05
-6.04381e-06
1.59539e-07
-2.03415e-05
-9.02601e-09
-1.33588e-05
-2.66035e-06
4.29082e-13
6.20355e-06
-6.88834e-06
-1.51884e-13
1.12007e-05
-1.11057e-05
-4.31714e-13
1.18413e-05
-1.46541e-05
-4.34611e-13
9.99453e-06
-1.71395e-05
-3.21329e-13
6.17933e-06
-1.81036e-05
-1.89836e-13
2.77574e-07
-1.69939e-05
-5.56181e-14
-7.56118e-06
-1.3026e-05
2.55508e-14
-1.61721e-05
-6.17015e-06
8.78836e-14
-2.11592e-05
1.38711e-13
-1.38008e-05
-2.66035e-06
4.80772e-07
6.20355e-06
-6.88834e-06
6.71774e-07
1.12007e-05
-1.11057e-05
5.64904e-07
1.18413e-05
-1.46541e-05
3.07816e-07
9.99453e-06
-1.71395e-05
-2.16512e-08
6.17933e-06
-1.81036e-05
-3.33893e-07
2.77574e-07
-1.69939e-05
-5.0916e-07
-7.56118e-06
-1.3026e-05
-4.26917e-07
-1.61721e-05
-6.17015e-06
-1.59539e-07
-2.11592e-05
9.02624e-09
-1.38008e-05
-2.50689e-06
8.38709e-07
6.1935e-06
-6.48249e-06
1.14654e-06
1.11426e-05
-1.04813e-05
9.71041e-07
1.18142e-05
-1.39128e-05
5.55325e-07
1.00851e-05
-1.64068e-05
2.4431e-08
6.44963e-06
-1.74898e-05
-4.80668e-07
7.63443e-07
-1.65435e-05
-7.72332e-07
-6.89926e-06
-1.27386e-05
-6.48052e-07
-1.53637e-05
-6.04381e-06
-2.21137e-07
-2.03415e-05
2.15563e-08
-1.33588e-05
-2.14339e-06
9.17451e-07
6.06564e-06
-5.5371e-06
1.20309e-06
1.07932e-05
-9.01116e-06
1.02847e-06
1.15013e-05
-1.21162e-05
6.29705e-07
1.0052e-05
-1.4545e-05
1.27778e-07
6.8888e-06
-1.5826e-05
-3.48766e-07
1.80581e-06
-1.52447e-05
-6.2081e-07
-5.25831e-06
-1.18896e-05
-4.97668e-07
-1.32345e-05
-5.68094e-06
-1.06077e-07
-1.81528e-05
2.66038e-08
-1.21774e-05
-1.49923e-06
5.8153e-07
5.46079e-06
-3.88217e-06
7.05558e-07
9.42445e-06
-6.38667e-06
6.09467e-07
1.00687e-05
-8.77078e-06
4.05365e-07
9.09436e-06
-1.08483e-05
1.53867e-07
6.86052e-06
-1.22213e-05
-8.13385e-08
3.10066e-06
-1.21599e-05
-1.93471e-07
-2.41726e-06
-9.71927e-06
-1.06971e-07
-8.98419e-06
-4.71503e-06
7.62945e-08
-1.34854e-05
8.27578e-09
-9.58698e-06
-5.55363e-07
3.32904e-06
-1.46663e-06
5.24562e-06
-2.452e-06
5.54175e-06
-3.49216e-06
5.21437e-06
-4.56266e-06
4.42692e-06
-5.47999e-06
2.96775e-06
-5.77767e-06
5.57662e-07
-4.81692e-06
-2.6621e-06
-2.3826e-06
-5.38529e-06
-4.5441e-06
-7.77692e-07
-6.88673e-07
4.79541e-06
-1.71805e-06
-7.75701e-07
6.96168e-06
-2.62088e-06
-5.36922e-07
6.98151e-06
-3.64805e-06
-1.03061e-07
6.3446e-06
-4.9436e-06
4.4274e-07
5.27973e-06
-6.4229e-06
9.76586e-07
3.47046e-06
-7.5175e-06
1.28138e-06
3.70883e-07
-7.10917e-06
1.07637e-06
-4.14681e-06
-4.20569e-06
4.37851e-07
-8.72661e-06
-6.9521e-08
-8.68027e-06
-1.87624e-06
-1.05952e-06
7.70788e-06
-4.41145e-06
-1.29737e-06
1.24813e-05
-6.86762e-06
-8.8189e-07
1.28699e-05
-9.23107e-06
-8.94694e-08
1.14442e-05
-1.15466e-05
9.01105e-07
8.71765e-06
-1.35743e-05
1.84669e-06
4.2583e-06
-1.4518e-05
2.35257e-06
-2.5448e-06
-1.28802e-05
1.98561e-06
-1.15312e-05
-7.32301e-06
8.65139e-07
-1.94699e-05
-6.76715e-08
-1.69118e-05
-2.57185e-06
-9.50999e-07
8.52897e-06
-6.17629e-06
-1.21645e-06
1.43167e-05
-9.59924e-06
-8.11746e-07
1.48541e-05
-1.2597e-05
-1.98354e-08
1.29801e-05
-1.50969e-05
9.54591e-07
9.33518e-06
-1.68422e-05
1.85784e-06
3.54002e-06
-1.71785e-05
2.28777e-06
-4.8573e-06
-1.47618e-05
1.87789e-06
-1.55435e-05
-8.28637e-06
8.10189e-07
-2.45733e-05
-3.55532e-08
-2.04959e-05
-2.94448e-06
-5.38608e-07
8.72559e-06
-7.13866e-06
-7.04755e-07
1.48251e-05
-1.10496e-05
-4.63612e-07
1.53769e-05
-1.42711e-05
1.259e-08
1.32742e-05
-1.66834e-05
5.92848e-07
9.22372e-06
-1.80864e-05
1.11752e-06
2.90671e-06
-1.80172e-05
1.34072e-06
-6.02133e-06
-1.52997e-05
1.07229e-06
-1.72756e-05
-8.60062e-06
4.53852e-07
-2.66843e-05
-1.05782e-08
-2.19844e-05
-3.09418e-06
2.63506e-13
8.75913e-06
-7.53284e-06
-1.91966e-13
1.49346e-05
-1.16321e-05
-4.63072e-13
1.54769e-05
-1.49105e-05
-4.83978e-13
1.32855e-05
-1.72366e-05
-3.63923e-13
9.09832e-06
-1.84654e-05
-1.85496e-13
2.62391e-06
-1.82383e-05
-2.30042e-15
-6.44757e-06
-1.5453e-05
1.0598e-13
-1.78851e-05
-8.71917e-06
1.57467e-13
-2.74392e-05
1.47609e-13
-2.25306e-05
-3.09418e-06
5.38609e-07
8.75913e-06
-7.53284e-06
7.04755e-07
1.49346e-05
-1.16321e-05
4.63611e-07
1.54769e-05
-1.49105e-05
-1.25907e-08
1.32855e-05
-1.72366e-05
-5.92849e-07
9.09832e-06
-1.84654e-05
-1.11752e-06
2.62391e-06
-1.82383e-05
-1.34072e-06
-6.44757e-06
-1.5453e-05
-1.07229e-06
-1.78851e-05
-8.71917e-06
-4.53852e-07
-2.74392e-05
1.05784e-08
-2.25306e-05
-2.94448e-06
9.50999e-07
8.72559e-06
-7.13866e-06
1.21644e-06
1.48251e-05
-1.10496e-05
8.11745e-07
1.53769e-05
-1.42711e-05
1.98348e-08
1.32742e-05
-1.66834e-05
-9.54591e-07
9.22372e-06
-1.80864e-05
-1.85784e-06
2.90671e-06
-1.80172e-05
-2.28777e-06
-6.02133e-06
-1.52997e-05
-1.87789e-06
-1.72756e-05
-8.60062e-06
-8.10188e-07
-2.66843e-05
3.55535e-08
-2.19844e-05
-2.57185e-06
1.05952e-06
8.52897e-06
-6.17629e-06
1.29737e-06
1.43167e-05
-9.59924e-06
8.81889e-07
1.48541e-05
-1.2597e-05
8.94691e-08
1.29801e-05
-1.50969e-05
-9.01105e-07
9.33518e-06
-1.68422e-05
-1.84669e-06
3.54002e-06
-1.71785e-05
-2.35257e-06
-4.8573e-06
-1.47618e-05
-1.98561e-06
-1.55435e-05
-8.28637e-06
-8.65138e-07
-2.45733e-05
6.76716e-08
-2.04959e-05
-1.87624e-06
6.88673e-07
7.70788e-06
-4.41145e-06
7.757e-07
1.24813e-05
-6.86762e-06
5.36922e-07
1.28699e-05
-9.23107e-06
1.03061e-07
1.14442e-05
-1.15466e-05
-4.4274e-07
8.71765e-06
-1.35743e-05
-9.76586e-07
4.2583e-06
-1.4518e-05
-1.28138e-06
-2.5448e-06
-1.28802e-05
-1.07637e-06
-1.15312e-05
-7.32301e-06
-4.37851e-07
-1.94699e-05
6.95212e-08
-1.69118e-05
-7.77692e-07
4.79541e-06
-1.71805e-06
6.96168e-06
-2.62088e-06
6.98151e-06
-3.64805e-06
6.3446e-06
-4.9436e-06
5.27973e-06
-6.4229e-06
3.47046e-06
-7.5175e-06
3.70883e-07
-7.10917e-06
-4.14681e-06
-4.20569e-06
-8.72661e-06
-8.68027e-06
-1.33226e-06
-8.23385e-07
6.95106e-06
-2.10169e-06
-8.34196e-07
8.5653e-06
-2.55607e-06
-3.84401e-07
7.82029e-06
-3.18432e-06
3.51714e-07
6.62114e-06
-4.38567e-06
1.26075e-06
5.22033e-06
-6.29138e-06
2.19174e-06
3.18443e-06
-8.40383e-06
2.79185e-06
-3.08521e-07
-9.15414e-06
2.49852e-06
-5.89501e-06
-6.448e-06
1.2007e-06
-1.26334e-05
-2.64527e-07
-1.48637e-05
-2.58814e-06
-1.20942e-06
1.06821e-05
-4.88184e-06
-1.35576e-06
1.52966e-05
-6.57207e-06
-6.26179e-07
1.48019e-05
-8.06958e-06
6.1481e-07
1.26786e-05
-9.79855e-06
2.1238e-06
9.58358e-06
-1.1874e-05
3.55566e-06
4.96986e-06
-1.3756e-05
4.31074e-06
-2.18176e-06
-1.37505e-05
3.65311e-06
-1.26912e-05
-9.28975e-06
1.60788e-06
-2.43379e-05
-3.65088e-07
-2.6101e-05
-3.23677e-06
-1.05377e-06
1.16101e-05
-6.51933e-06
-1.24327e-06
1.74868e-05
-8.98931e-06
-5.6514e-07
1.72631e-05
-1.08176e-05
6.08539e-07
1.48147e-05
-1.2334e-05
2.00658e-06
1.09688e-05
-1.37276e-05
3.25402e-06
5.23529e-06
-1.47609e-05
3.77994e-06
-3.29325e-06
-1.41759e-05
3.0295e-06
-1.55048e-05
-9.55065e-06
1.21948e-06
-2.88101e-05
-2.85677e-07
-3.01259e-05
-3.54885e-06
-5.86316e-07
1.1807e-05
-7.33609e-06
-7.10532e-07
1.80796e-05
-1.01617e-05
-3.17832e-07
1.79552e-05
-1.20342e-05
3.67019e-07
1.53883e-05
-1.32522e-05
1.16939e-06
1.12789e-05
-1.41239e-05
1.85559e-06
5.17685e-06
-1.46905e-05
2.09434e-06
-3.76921e-06
-1.39891e-05
1.61426e-06
-1.65616e-05
-9.56254e-06
6.12945e-07
-3.05043e-05
-1.40097e-07
-3.16925e-05
-3.66187e-06
1.47816e-13
1.18347e-05
-7.64229e-06
-1.96835e-13
1.82045e-05
-1.05881e-05
-4.58208e-13
1.81049e-05
-1.24374e-05
-4.85117e-13
1.55018e-05
-1.34907e-05
-3.42766e-13
1.13209e-05
-1.41376e-05
-1.33715e-13
5.12645e-06
-1.45601e-05
8.17913e-14
-3.93071e-06
-1.38991e-05
1.8935e-13
-1.69319e-05
-9.602e-06
2.08684e-13
-3.11233e-05
1.66395e-13
-3.22727e-05
-3.66187e-06
5.86317e-07
1.18347e-05
-7.64229e-06
7.10532e-07
1.82045e-05
-1.05881e-05
3.17831e-07
1.81049e-05
-1.24374e-05
-3.6702e-07
1.55018e-05
-1.34907e-05
-1.16939e-06
1.13209e-05
-1.41376e-05
-1.85559e-06
5.12645e-06
-1.45601e-05
-2.09434e-06
-3.93071e-06
-1.38991e-05
-1.61426e-06
-1.69319e-05
-9.602e-06
-6.12945e-07
-3.11233e-05
1.40097e-07
-3.22727e-05
-3.54885e-06
1.05377e-06
1.1807e-05
-7.33609e-06
1.24327e-06
1.80796e-05
-1.01617e-05
5.6514e-07
1.79552e-05
-1.20342e-05
-6.08539e-07
1.53883e-05
-1.32522e-05
-2.00658e-06
1.12789e-05
-1.41239e-05
-3.25402e-06
5.17685e-06
-1.46905e-05
-3.77994e-06
-3.76921e-06
-1.39891e-05
-3.0295e-06
-1.65616e-05
-9.56254e-06
-1.21948e-06
-3.05043e-05
2.85677e-07
-3.16925e-05
-3.23677e-06
1.20942e-06
1.16101e-05
-6.51933e-06
1.35576e-06
1.74868e-05
-8.98931e-06
6.26178e-07
1.72631e-05
-1.08176e-05
-6.1481e-07
1.48147e-05
-1.2334e-05
-2.1238e-06
1.09688e-05
-1.37276e-05
-3.55566e-06
5.23529e-06
-1.47609e-05
-4.31074e-06
-3.29325e-06
-1.41759e-05
-3.65311e-06
-1.55048e-05
-9.55066e-06
-1.60788e-06
-2.88101e-05
3.65088e-07
-3.01259e-05
-2.58814e-06
8.23386e-07
1.06821e-05
-4.88184e-06
8.34196e-07
1.52966e-05
-6.57208e-06
3.84401e-07
1.48019e-05
-8.06958e-06
-3.51714e-07
1.26786e-05
-9.79855e-06
-1.26075e-06
9.58358e-06
-1.1874e-05
-2.19174e-06
4.96986e-06
-1.3756e-05
-2.79185e-06
-2.18176e-06
-1.37505e-05
-2.49852e-06
-1.26912e-05
-9.28975e-06
-1.2007e-06
-2.43379e-05
2.64527e-07
-2.6101e-05
-1.33226e-06
6.95106e-06
-2.10169e-06
8.5653e-06
-2.55607e-06
7.82029e-06
-3.18432e-06
6.62114e-06
-4.38567e-06
5.22033e-06
-6.29138e-06
3.18443e-06
-8.40383e-06
-3.08521e-07
-9.15414e-06
-5.89501e-06
-6.448e-06
-1.26334e-05
-1.48637e-05
-2.57015e-06
-1.09521e-06
1.06164e-05
-2.49426e-06
-1.07141e-06
9.56081e-06
-1.66396e-06
-4.29722e-07
7.41971e-06
-1.1179e-06
5.59844e-07
5.51523e-06
-1.52423e-06
1.74833e-06
3.87832e-06
-3.2593e-06
2.99761e-06
1.92189e-06
-6.21732e-06
3.94485e-06
-1.29534e-06
-8.68178e-06
3.69233e-06
-7.12288e-06
-7.65402e-06
1.70404e-06
-1.53652e-05
-9.35788e-07
-2.1582e-05
-4.26444e-06
-1.50023e-06
1.53515e-05
-5.23925e-06
-1.63103e-06
1.6831e-05
-4.65035e-06
-6.8398e-07
1.44673e-05
-3.74469e-06
8.21973e-07
1.15108e-05
-3.4043e-06
2.61173e-06
8.3798e-06
-4.18143e-06
4.33643e-06
4.40817e-06
-6.18621e-06
5.38939e-06
-1.62153e-06
-8.33398e-06
4.65606e-06
-1.15071e-05
-7.56077e-06
1.77375e-06
-2.51808e-05
-1.26182e-06
-3.33358e-05
-4.91947e-06
-1.24201e-06
1.62713e-05
-6.64368e-06
-1.42916e-06
1.90091e-05
-6.43097e-06
-5.99526e-07
1.69659e-05
-5.36382e-06
7.40175e-07
1.38293e-05
-4.27897e-06
2.29013e-06
1.02056e-05
-3.8609e-06
3.69167e-06
5.46198e-06
-4.59557e-06
4.38235e-06
-1.55154e-06
-6.26919e-06
3.54213e-06
-1.27173e-05
-6.22813e-06
1.17275e-06
-2.82502e-05
-9.14194e-07
-3.67017e-05
-5.1612e-06
-6.70083e-07
1.63963e-05
-7.23509e-06
-7.94902e-07
1.95193e-05
-7.18998e-06
-3.30668e-07
1.76412e-05
-5.99466e-06
4.23283e-07
1.45098e-05
-4.47447e-06
1.28125e-06
1.07676e-05
-3.42697e-06
2.02438e-06
5.79665e-06
-3.61519e-06
2.33425e-06
-1.53289e-06
-5.27714e-06
1.80931e-06
-1.31669e-05
-5.77816e-06
5.56403e-07
-2.9387e-05
-4.28638e-07
-3.79562e-05
-5.22747e-06
4.47451e-14
1.63921e-05
-7.41576e-06
-2.31776e-13
1.95979e-05
-7.41283e-06
-4.48009e-13
1.77713e-05
-6.14485e-06
-4.54681e-13
1.46571e-05
-4.44325e-06
-3.21603e-13
1.09006e-05
-3.17378e-06
-9.39893e-14
5.88135e-06
-3.22767e-06
1.48441e-13
-1.54256e-06
-4.99188e-06
2.62065e-13
-1.33584e-05
-5.72787e-06
2.57794e-13
-2.98309e-05
2.02292e-13
-3.84292e-05
-5.22747e-06
6.70083e-07
1.63921e-05
-7.41576e-06
7.94902e-07
1.95979e-05
-7.41283e-06
3.30667e-07
1.77713e-05
-6.14485e-06
-4.23283e-07
1.46571e-05
-4.44325e-06
-1.28125e-06
1.09006e-05
-3.17378e-06
-2.02438e-06
5.88135e-06
-3.22767e-06
-2.33425e-06
-1.54256e-06
-4.99188e-06
-1.80931e-06
-1.33584e-05
-5.72787e-06
-5.56403e-07
-2.98309e-05
4.28638e-07
-3.84292e-05
-5.1612e-06
1.24201e-06
1.63963e-05
-7.23509e-06
1.42916e-06
1.95193e-05
-7.18998e-06
5.99525e-07
1.76412e-05
-5.99466e-06
-7.40176e-07
1.45098e-05
-4.47448e-06
-2.29013e-06
1.07676e-05
-3.42697e-06
-3.69167e-06
5.79665e-06
-3.61519e-06
-4.38235e-06
-1.53289e-06
-5.27714e-06
-3.54213e-06
-1.31669e-05
-5.77816e-06
-1.17275e-06
-2.9387e-05
9.14194e-07
-3.79562e-05
-4.91947e-06
1.50023e-06
1.62713e-05
-6.64368e-06
1.63103e-06
1.90091e-05
-6.43097e-06
6.83979e-07
1.69659e-05
-5.36382e-06
-8.21974e-07
1.38293e-05
-4.27897e-06
-2.61173e-06
1.02056e-05
-3.86091e-06
-4.33643e-06
5.46198e-06
-4.59557e-06
-5.38939e-06
-1.55154e-06
-6.26919e-06
-4.65606e-06
-1.27173e-05
-6.22813e-06
-1.77375e-06
-2.82502e-05
1.26182e-06
-3.67017e-05
-4.26444e-06
1.09521e-06
1.53515e-05
-5.23925e-06
1.07141e-06
1.6831e-05
-4.65035e-06
4.29722e-07
1.44673e-05
-3.74469e-06
-5.59844e-07
1.15108e-05
-3.4043e-06
-1.74833e-06
8.3798e-06
-4.18143e-06
-2.99761e-06
4.40817e-06
-6.18621e-06
-3.94485e-06
-1.62153e-06
-8.33398e-06
-3.69233e-06
-1.15071e-05
-7.56077e-06
-1.70404e-06
-2.51808e-05
9.35788e-07
-3.33358e-05
-2.57015e-06
1.06164e-05
-2.49426e-06
9.56081e-06
-1.66396e-06
7.41971e-06
-1.1179e-06
5.51523e-06
-1.52423e-06
3.87832e-06
-3.2593e-06
1.92189e-06
-6.21732e-06
-1.29534e-06
-8.68178e-06
-7.12288e-06
-7.65402e-06
-1.53652e-05
-2.1582e-05
-2.72335e-06
-1.83755e-06
1.51773e-05
3.20461e-07
-1.90234e-06
8.41934e-06
4.24947e-06
-1.14516e-06
4.63586e-06
7.07309e-06
-1.35386e-07
2.827e-06
8.30468e-06
1.06648e-06
1.58026e-06
7.47555e-06
2.35184e-06
3.9918e-07
4.24908e-06
3.56178e-06
-1.63065e-06
-6.56083e-07
3.52238e-06
-5.7401e-06
-3.48938e-06
1.03551e-06
-1.35675e-05
-2.62793e-06
-2.24434e-05
-4.90008e-06
-2.17505e-06
2.05891e-05
-1.10285e-06
-2.56799e-06
1.36994e-05
4.60313e-06
-1.71385e-06
9.32997e-06
9.65075e-06
-3.30802e-07
6.65863e-06
1.33403e-05
1.28916e-06
4.46754e-06
1.49512e-05
2.95135e-06
2.19782e-06
1.36075e-05
4.30204e-06
-1.0181e-06
9.00684e-06
3.96445e-06
-7.34858e-06
2.95912e-06
8.65265e-07
-1.89628e-05
-2.63852e-06
-3.03661e-05
-5.6796e-06
-1.63807e-06
2.14139e-05
-2.11363e-06
-2.07864e-06
1.49538e-05
3.72794e-06
-1.42965e-06
1.08401e-05
9.43034e-06
-3.20179e-07
8.11631e-06
1.42341e-05
9.91699e-07
5.6992e-06
1.73082e-05
2.28527e-06
3.054e-06
1.73511e-05
3.22961e-06
-5.22016e-07
1.3291e-05
2.87215e-06
-7.56482e-06
5.52043e-06
5.88786e-07
-2.02032e-05
-1.63178e-06
-3.2188e-05
-5.85861e-06
-8.40172e-07
2.1457e-05
-2.43694e-06
-1.10464e-06
1.51236e-05
3.38864e-06
-7.65012e-07
1.1151e-05
9.27691e-06
-1.78142e-07
8.47953e-06
1.4474e-05
5.18362e-07
6.04383e-06
1.80647e-05
1.19034e-06