/*--------------------------------*- C++ -*----------------------------------*\
  =========                 |
  \\      /  F ield         | OpenFOAM: The Open Source CFD Toolbox
   \\    /   O peration     | Website:  https://openfoam.org
    \\  /    A nd           | Version:  9
     \\/     M anipulation  |
\*---------------------------------------------------------------------------*/
FoamFile
{
    format      ascii;
    class       volVectorField;
    location    "0.4";
    object      U;
}
// * * * * * * * * * * * * * * * * * * * * * * * * * * * * * * * * * * * * * //

dimensions      [0 1 -1 0 0 0 0];

internalField   nonuniform List<vector> 
1000
(
(-6.82567e-05 -0.000406078 0.000361482)
(-0.00163839 -0.000325441 0.00104478)
(-0.00480942 -0.000273539 0.00131825)
(-0.00803637 -0.00036598 0.00137828)
(-0.0106922 -0.000625423 0.00126989)
(-0.0119744 -0.00101944 0.000931288)
(-0.0110788 -0.00142302 0.00035236)
(-0.00773408 -0.00159463 -0.000273549)
(-0.00272437 -0.00129161 -0.000446642)
(1.23161e-05 -0.00037701 0.000189466)
(-0.000295267 -0.00135482 0.000602676)
(-0.00363376 -0.00153468 0.00213125)
(-0.0100174 -0.00154675 0.00271508)
(-0.0163633 -0.00181231 0.00268173)
(-0.0213848 -0.00243716 0.00215157)
(-0.0236089 -0.00334482 0.00105731)
(-0.0216171 -0.00422409 -0.000509563)
(-0.0150144 -0.00449535 -0.00192511)
(-0.00547575 -0.00362777 -0.00197282)
(-0.00016234 -0.0013204 -1.28121e-05)
(-0.000447856 -0.00193387 0.000371195)
(-0.00486332 -0.00258444 0.002215)
(-0.0131406 -0.00275991 0.00291744)
(-0.021266 -0.00309577 0.00277296)
(-0.0275695 -0.00377315 0.00191384)
(-0.0301854 -0.00471396 0.00028114)
(-0.0273288 -0.00553319 -0.00194348)
(-0.0185929 -0.00564999 -0.00373885)
(-0.00633927 -0.00455457 -0.00340312)
(9.46696e-05 -0.00193171 -0.000265419)
(-0.000520642 -0.00158664 7.31579e-05)
(-0.00554639 -0.00224275 0.00197628)
(-0.014922 -0.00243327 0.0027101)
(-0.0240748 -0.00269165 0.00249484)
(-0.0311026 -0.00317577 0.00144308)
(-0.0338548 -0.00382935 -0.000506474)
(-0.0303432 -0.00434725 -0.00309962)
(-0.0202489 -0.00435055 -0.00504803)
(-0.00640202 -0.00351145 -0.00435579)
(0.000447628 -0.00159139 -0.000418222)
(-0.000548643 -0.000602556 -0.000104394)
(-0.00584654 -0.000870309 0.00179287)
(-0.0157221 -0.000949477 0.00253314)
(-0.0253431 -0.00104349 0.00228812)
(-0.0326936 -0.00121305 0.00115235)
(-0.0354872 -0.00143747 -0.000941183)
(-0.0316362 -0.00161224 -0.00368634)
(-0.0208794 -0.00160062 -0.00568061)
(-0.00630304 -0.00129433 -0.00479504)
(0.000666406 -0.000604092 -0.00048149)
(-0.000548642 0.000602579 -0.000104393)
(-0.00584654 0.000870322 0.00179287)
(-0.0157221 0.000949486 0.00253314)
(-0.0253431 0.0010435 0.00228812)
(-0.0326936 0.00121305 0.00115235)
(-0.0354872 0.00143747 -0.000941183)
(-0.0316362 0.00161224 -0.00368634)
(-0.0208794 0.00160062 -0.00568061)
(-0.00630304 0.00129434 -0.00479504)
(0.000666407 0.000604095 -0.00048149)
(-0.000520638 0.00158667 7.31629e-05)
(-0.00554638 0.00224276 0.00197629)
(-0.014922 0.00243328 0.0027101)
(-0.0240748 0.00269166 0.00249484)
(-0.0311026 0.00317578 0.00144308)
(-0.0338548 0.00382935 -0.000506474)
(-0.0303432 0.00434725 -0.00309962)
(-0.0202489 0.00435055 -0.00504803)
(-0.00640202 0.00351145 -0.00435579)
(0.000447628 0.00159139 -0.000418222)
(-0.000447846 0.00193388 0.000371207)
(-0.00486331 0.00258444 0.00221501)
(-0.0131406 0.00275991 0.00291745)
(-0.021266 0.00309578 0.00277297)
(-0.0275695 0.00377315 0.00191384)
(-0.0301854 0.00471397 0.000281139)
(-0.0273288 0.00553319 -0.00194348)
(-0.0185929 0.00564999 -0.00373886)
(-0.00633927 0.00455458 -0.00340312)
(9.46705e-05 0.00193171 -0.00026542)
(-0.000295237 0.00135478 0.000602709)
(-0.00363374 0.00153466 0.00213127)
(-0.0100174 0.00154675 0.00271509)
(-0.0163633 0.00181231 0.00268173)
(-0.0213849 0.00243716 0.00215157)
(-0.0236089 0.00334482 0.00105731)
(-0.0216171 0.00422409 -0.000509565)
(-0.0150144 0.00449535 -0.00192511)
(-0.00547575 0.00362777 -0.00197283)
(-0.000162339 0.0013204 -1.28138e-05)
(-6.8198e-05 0.00040602 0.000361544)
(-0.00163835 0.000325413 0.00104481)
(-0.00480943 0.000273533 0.00131826)
(-0.00803639 0.000365979 0.00137829)
(-0.0106922 0.000625424 0.00126989)
(-0.0119744 0.00101944 0.000931287)
(-0.0110788 0.00142302 0.000352359)
(-0.00773408 0.00159463 -0.000273549)
(-0.00272437 0.00129161 -0.000446643)
(1.23173e-05 0.00037701 0.000189465)
(-0.000688323 -0.0011634 0.00319003)
(-0.00424739 -0.00139794 0.00628188)
(-0.0102026 -0.00140205 0.00729987)
(-0.0160957 -0.00145225 0.00720874)
(-0.0208737 -0.00163814 0.00620057)
(-0.0232254 -0.00196384 0.00410952)
(-0.021811 -0.00230758 0.00101412)
(-0.0159736 -0.00235473 -0.00216884)
(-0.00674384 -0.00173428 -0.00342671)
(-0.000761449 -0.000206702 -0.00102472)
(-0.00196665 -0.00325993 0.00525639)
(-0.0104672 -0.00434094 0.0117634)
(-0.0238922 -0.00451361 0.0137937)
(-0.0367632 -0.00469545 0.0129316)
(-0.0466406 -0.00518487 0.0096697)
(-0.0509232 -0.00596515 0.00393496)
(-0.0471688 -0.00671553 -0.00359575)
(-0.0344186 -0.00665133 -0.0102795)
(-0.0151774 -0.00499903 -0.0112923)
(-0.00221498 -0.00125705 -0.00344111)
(-0.00280198 -0.00410457 0.00516968)
(-0.0145175 -0.00594739 0.0129052)
(-0.0326671 -0.00634073 0.015206)
(-0.0497029 -0.00659496 0.0135787)
(-0.0623502 -0.00714721 0.00856906)
(-0.0673309 -0.00796256 0.000227903)
(-0.0616495 -0.00861755 -0.0101449)
(-0.0443557 -0.00832956 -0.0185081)
(-0.0191406 -0.00638767 -0.0181277)
(-0.002603 -0.00226067 -0.00542411)
(-0.0032433 -0.00318673 0.00455589)
(-0.0168065 -0.0048108 0.0125373)
(-0.0377128 -0.00518342 0.0148236)
(-0.0571068 -0.00538104 0.0126725)
(-0.071228 -0.00576987 0.00658218)
(-0.0763763 -0.00632209 -0.00330173)
(-0.0692921 -0.00667528 -0.0152703)
(-0.0492195 -0.00636497 -0.0243182)
(-0.0206443 -0.00493814 -0.0226154)
(-0.00249469 -0.00196919 -0.00664123)
(-0.00342142 -0.00118209 0.00413056)
(-0.017804 -0.00181529 0.0120985)
(-0.0399608 -0.00196398 0.014339)
(-0.0604098 -0.00203499 0.0119421)
(-0.0751643 -0.00216798 0.00536031)
(-0.0803189 -0.00235329 -0.0052129)
(-0.0725162 -0.00245771 -0.0178485)
(-0.0511417 -0.00232973 -0.0271086)
(-0.0210878 -0.00181938 -0.0246901)
(-0.00235036 -0.000762849 -0.0071793)
(-0.00342142 0.00118211 0.00413056)
(-0.017804 0.00181529 0.0120985)
(-0.0399608 0.00196397 0.014339)
(-0.0604098 0.00203499 0.0119421)
(-0.0751643 0.00216798 0.00536031)
(-0.0803189 0.00235329 -0.0052129)
(-0.0725162 0.00245771 -0.0178485)
(-0.0511417 0.00232974 -0.0271086)
(-0.0210878 0.00181939 -0.0246901)
(-0.00235036 0.000762852 -0.0071793)
(-0.00324329 0.00318674 0.0045559)
(-0.0168065 0.00481079 0.0125373)
(-0.0377128 0.00518341 0.0148237)
(-0.0571067 0.00538104 0.0126725)
(-0.071228 0.00576987 0.00658218)
(-0.0763763 0.00632209 -0.00330173)
(-0.0692921 0.00667529 -0.0152703)
(-0.0492195 0.00636497 -0.0243182)
(-0.0206443 0.00493814 -0.0226154)
(-0.0024947 0.00196919 -0.00664123)
(-0.00280197 0.00410457 0.00516969)
(-0.0145175 0.00594737 0.0129052)
(-0.0326671 0.00634072 0.015206)
(-0.0497029 0.00659496 0.0135787)
(-0.0623502 0.00714721 0.00856906)
(-0.0673309 0.00796256 0.000227902)
(-0.0616495 0.00861755 -0.0101449)
(-0.0443557 0.00832957 -0.0185081)
(-0.0191406 0.00638768 -0.0181277)
(-0.002603 0.00226067 -0.00542411)
(-0.00196662 0.00325991 0.00525642)
(-0.0104672 0.00434091 0.0117634)
(-0.0238922 0.0045136 0.0137937)
(-0.0367631 0.00469545 0.0129316)
(-0.0466406 0.00518487 0.00966971)
(-0.0509232 0.00596516 0.00393496)
(-0.0471688 0.00671553 -0.00359576)
(-0.0344186 0.00665133 -0.0102795)
(-0.0151774 0.00499904 -0.0112923)
(-0.00221498 0.00125705 -0.00344111)
(-0.000688295 0.00116337 0.00319008)
(-0.00424736 0.00139792 0.0062819)
(-0.0102026 0.00140204 0.00729988)
(-0.0160957 0.00145225 0.00720874)
(-0.0208737 0.00163814 0.00620057)
(-0.0232254 0.00196385 0.00410951)
(-0.021811 0.00230758 0.00101412)
(-0.0159736 0.00235473 -0.00216884)
(-0.00674384 0.00173428 -0.00342671)
(-0.000761449 0.000206703 -0.00102472)
(-0.00114775 -0.00184779 0.00910393)
(-0.00611388 -0.00232834 0.016118)
(-0.0139389 -0.00232794 0.0180974)
(-0.0216647 -0.00225633 0.0174907)
(-0.0282638 -0.00227635 0.0147576)
(-0.0322365 -0.00246076 0.00956084)
(-0.0316483 -0.00272298 0.00199978)
(-0.0248554 -0.00276009 -0.00605294)
(-0.0121018 -0.00202365 -0.0101221)
(-0.00215865 -8.7222e-06 -0.0052494)
(-0.00335015 -0.00496544 0.0150354)
(-0.0159201 -0.00672735 0.0293727)
(-0.0346168 -0.00684492 0.0331133)
(-0.0523586 -0.00663224 0.0303279)
(-0.0664374 -0.0065921 0.0221461)
(-0.0737188 -0.00686859 0.00848132)
(-0.070697 -0.0072224 -0.0093151)
(-0.0547652 -0.00703634 -0.0258645)
(-0.0272105 -0.00526817 -0.0303935)
(-0.0052876 -0.000834785 -0.0133423)
(-0.00485331 -0.00600541 0.0160233)
(-0.022603 -0.00870751 0.0329604)
(-0.0484758 -0.00898217 0.0369662)
(-0.072367 -0.00865757 0.0321503)
(-0.0904994 -0.0084201 0.0198214)
(-0.0988507 -0.00840512 0.000248801)
(-0.0933063 -0.00838137 -0.0238672)
(-0.0711449 -0.0078818 -0.0444715)
(-0.0347541 -0.00607919 -0.0466818)
(-0.00648736 -0.00181806 -0.0191301)
(-0.00568372 -0.00454615 0.0155587)
(-0.026463 -0.00683442 0.0330723)
(-0.0565501 -0.00709204 0.0368538)
(-0.0838801 -0.00679717 0.0306507)
(-0.104043 -0.00650128 0.0157682)
(-0.112563 -0.00629499 -0.00721433)
(-0.105091 -0.00605099 -0.034722)
(-0.0791307 -0.00557281 -0.0569576)
(-0.0379355 -0.00439074 -0.0568521)
(-0.00672705 -0.00160692 -0.0225239)
(-0.0060291 -0.0016649 0.0150835)
(-0.0281555 -0.00254196 0.0326147)
(-0.0601448 -0.00264354 0.0362085)
(-0.0889855 -0.0025243 0.0293511)
(-0.109972 -0.00239195 0.0133187)
(-0.118427 -0.00227976 -0.0111391)
(-0.109952 -0.00214847 -0.0400138)
(-0.0822537 -0.00195969 -0.0627528)
(-0.0390254 -0.00156399 -0.0614053)
(-0.00671403 -0.000623344 -0.0239912)
(-0.0060291 0.00166491 0.0150835)
(-0.0281555 0.00254195 0.0326147)
(-0.0601447 0.00264353 0.0362085)
(-0.0889855 0.0025243 0.0293511)
(-0.109972 0.00239195 0.0133187)
(-0.118427 0.00227976 -0.0111391)
(-0.109952 0.00214847 -0.0400138)
(-0.0822537 0.00195969 -0.0627528)
(-0.0390254 0.00156399 -0.0614053)
(-0.00671403 0.000623346 -0.0239912)
(-0.00568371 0.00454616 0.0155587)
(-0.026463 0.00683441 0.0330723)
(-0.0565501 0.00709203 0.0368538)
(-0.0838801 0.00679716 0.0306507)
(-0.104043 0.00650128 0.0157682)
(-0.112563 0.00629499 -0.00721433)
(-0.105091 0.00605099 -0.034722)
(-0.0791307 0.00557282 -0.0569576)
(-0.0379355 0.00439074 -0.0568521)
(-0.00672705 0.00160692 -0.0225239)
(-0.0048533 0.00600541 0.0160233)
(-0.022603 0.0087075 0.0329604)
(-0.0484758 0.00898216 0.0369663)
(-0.072367 0.00865757 0.0321503)
(-0.0904994 0.0084201 0.0198214)
(-0.0988507 0.00840512 0.000248803)
(-0.0933063 0.00838138 -0.0238672)
(-0.0711449 0.0078818 -0.0444715)
(-0.0347541 0.0060792 -0.0466818)
(-0.00648736 0.00181806 -0.0191301)
(-0.00335014 0.00496543 0.0150355)
(-0.0159201 0.00672733 0.0293728)
(-0.0346167 0.00684491 0.0331133)
(-0.0523586 0.00663223 0.0303279)
(-0.0664374 0.0065921 0.0221461)
(-0.0737188 0.00686859 0.00848132)
(-0.070697 0.0072224 -0.0093151)
(-0.0547652 0.00703634 -0.0258645)
(-0.0272105 0.00526817 -0.0303935)
(-0.00528761 0.000834786 -0.0133423)
(-0.00114774 0.00184779 0.00910393)
(-0.00611387 0.00232832 0.016118)
(-0.013939 0.00232794 0.0180974)
(-0.0216647 0.00225633 0.0174907)
(-0.0282638 0.00227635 0.0147576)
(-0.0322365 0.00246076 0.00956084)
(-0.0316483 0.00272298 0.00199978)
(-0.0248554 0.0027601 -0.00605294)
(-0.0121018 0.00202365 -0.0101221)
(-0.00215866 8.72198e-06 -0.0052494)
(-0.00157588 -0.00252288 0.0170592)
(-0.00770197 -0.00317036 0.0288152)
(-0.0169683 -0.00303874 0.0317022)
(-0.0262609 -0.00267065 0.0304081)
(-0.0349771 -0.00231133 0.0257716)
(-0.0417081 -0.00214626 0.0170168)
(-0.0437914 -0.00224527 0.00372613)
(-0.0377455 -0.00248075 -0.0116448)
(-0.0216066 -0.00204921 -0.0212795)
(-0.00526517 8.8351e-05 -0.0138319)
(-0.00461132 -0.00664123 0.0282029)
(-0.020683 -0.00885859 0.0520506)
(-0.0437813 -0.00853317 0.0574191)
(-0.0658328 -0.00734829 0.0522199)
(-0.0845782 -0.00602645 0.0384045)
(-0.0968165 -0.00501764 0.0153691)
(-0.0977588 -0.00455946 -0.0157865)
(-0.0817378 -0.00469614 -0.0473705)
(-0.0464914 -0.00410376 -0.0605068)
(-0.0113074 -0.000375426 -0.0322245)
(-0.00671131 -0.00785878 0.0308789)
(-0.0297176 -0.0111157 0.0590546)
(-0.0621522 -0.0107282 0.0646448)
(-0.0920632 -0.00898233 0.0559967)
(-0.116007 -0.0068369 0.0354544)
(-0.129783 -0.00483955 0.00295176)
(-0.127976 -0.00352818 -0.0386379)
(-0.104689 -0.00337247 -0.077789)
(-0.0585409 -0.00343429 -0.0890036)
(-0.0138034 -0.00101575 -0.0439072)
(-0.00788491 -0.00585668 0.030928)
(-0.0349633 -0.00855362 0.0601821)
(-0.0728523 -0.00824761 0.0653205)
(-0.107026 -0.00676104 0.054394)
(-0.133314 -0.00485802 0.0298754)
(-0.147106 -0.00297765 -0.0077857)
(-0.142906 -0.00169748 -0.0544422)
(-0.115209 -0.00154339 -0.0964865)
(-0.0635869 -0.00195022 -0.105273)
(-0.0146193 -0.000867962 -0.0502049)
(-0.00837447 -0.00212664 0.0305885)
(-0.0372528 -0.00314909 0.0599737)
(-0.0775703 -0.00303301 0.0647843)
(-0.113553 -0.00245801 0.0528132)
(-0.140695 -0.00171266 0.0265803)
(-0.154232 -0.000966857 -0.0131752)
(-0.148758 -0.000450248 -0.0617165)
(-0.119124 -0.000396446 -0.104624)
(-0.0653593 -0.000607095 -0.112108)
(-0.0148441 -0.000329012 -0.0527774)
(-0.00837447 0.00212665 0.0305885)
(-0.0372528 0.00314909 0.0599737)
(-0.0775703 0.003033 0.0647843)
(-0.113553 0.002458 0.0528132)
(-0.140695 0.00171265 0.0265803)
(-0.154232 0.000966856 -0.0131752)
(-0.148758 0.000450248 -0.0617165)
(-0.119124 0.000396446 -0.104624)
(-0.0653593 0.000607097 -0.112108)
(-0.0148441 0.000329014 -0.0527774)
(-0.00788491 0.00585668 0.030928)
(-0.0349633 0.00855361 0.0601821)
(-0.0728523 0.0082476 0.0653205)
(-0.107026 0.00676103 0.054394)
(-0.133314 0.00485802 0.0298754)
(-0.147106 0.00297765 -0.0077857)
(-0.142906 0.00169748 -0.0544422)
(-0.115209 0.00154339 -0.0964865)
(-0.0635869 0.00195022 -0.105273)
(-0.0146193 0.000867963 -0.0502049)
(-0.0067113 0.00785879 0.0308789)
(-0.0297176 0.0111157 0.0590547)
(-0.0621522 0.0107282 0.0646449)
(-0.0920632 0.00898232 0.0559967)
(-0.116006 0.0068369 0.0354544)
(-0.129783 0.00483955 0.00295177)
(-0.127976 0.00352819 -0.0386379)
(-0.104689 0.00337247 -0.077789)
(-0.0585409 0.00343429 -0.0890036)
(-0.0138034 0.00101575 -0.0439072)
(-0.00461132 0.00664123 0.0282029)
(-0.020683 0.00885858 0.0520506)
(-0.0437813 0.00853317 0.0574191)
(-0.0658328 0.00734829 0.05222)
(-0.0845782 0.00602645 0.0384045)
(-0.0968165 0.00501764 0.0153691)
(-0.0977588 0.00455946 -0.0157865)
(-0.0817378 0.00469614 -0.0473705)
(-0.0464914 0.00410376 -0.0605068)
(-0.0113074 0.000375426 -0.0322245)
(-0.00157587 0.00252288 0.0170592)
(-0.00770197 0.00317035 0.0288152)
(-0.0169683 0.00303874 0.0317022)
(-0.0262609 0.00267065 0.0304081)
(-0.0349771 0.00231134 0.0257716)
(-0.0417081 0.00214626 0.0170168)
(-0.0437914 0.00224527 0.00372613)
(-0.0377455 0.00248075 -0.0116448)
(-0.0216066 0.00204921 -0.0212795)
(-0.00526517 -8.83519e-05 -0.0138319)
(-0.00223486 -0.00316988 0.0272104)
(-0.00946558 -0.0038539 0.044048)
(-0.0195394 -0.00334239 0.0473644)
(-0.0297658 -0.00230118 0.045017)
(-0.0405437 -0.00107796 0.0383178)
(-0.0511305 -5.28755e-05 0.0256926)
(-0.0582944 0.000330376 0.00543736)
(-0.0558656 -0.000298321 -0.0202745)
(-0.0378752 -0.0010441 -0.0398887)
(-0.0116735 -3.44937e-05 -0.0308297)
(-0.0061023 -0.00819569 0.0448006)
(-0.0252906 -0.0105145 0.0791961)
(-0.0514964 -0.00905886 0.0857097)
(-0.0765292 -0.0058288 0.077691)
(-0.0995019 -0.00182673 0.0580699)
(-0.118006 0.00190458 0.0250358)
(-0.126281 0.00396965 -0.0220278)
(-0.114761 0.00285803 -0.0747285)
(-0.0756106 -0.000117206 -0.105352)
(-0.022494 -0.000195961 -0.0671085)
(-0.0086784 -0.00951523 0.0496528)
(-0.0361745 -0.012881 0.0904648)
(-0.0733143 -0.0109617 0.0973326)
(-0.107242 -0.00643537 0.0847249)
(-0.135833 -0.000674335 0.0562366)
(-0.155722 0.00487374 0.0106812)
(-0.160766 0.00810685 -0.0507291)
(-0.141576 0.00678798 -0.115383)
(-0.0915638 0.00212307 -0.147064)
(-0.0267027 -0.000262109 -0.0874322)
(-0.0100854 -0.00699454 0.0504981)
(-0.0423871 -0.00975115 0.0930795)
(-0.0857716 -0.00821349 0.0994262)
(-0.124238 -0.00450566 0.083962)
(-0.154873 0.000238693 0.0506409)
(-0.173974 0.00478999 -0.00103931)
(-0.175864 0.0073416 -0.0685638)
(-0.152204 0.00613802 -0.137489)
(-0.097636 0.00223931 -0.168181)
(-0.0282616 -0.000135998 -0.0973054)
(-0.0106582 -0.00252082 0.0504407)
(-0.0450413 -0.00355898 0.0933563)
(-0.0911289 -0.0029805 0.0993245)
(-0.131399 -0.00157619 0.082612)
(-0.162586 0.000219846 0.0473516)
(-0.180936 0.00192926 -0.00657245)
(-0.181209 0.00285574 -0.0761337)
(-0.155762 0.00236642 -0.146314)
(-0.0997317 0.000896769 -0.176382)
(-0.0288213 -3.38983e-05 -0.101096)
(-0.0106582 0.00252082 0.0504407)
(-0.0450413 0.00355898 0.0933563)
(-0.0911289 0.00298049 0.0993245)
(-0.131399 0.00157619 0.082612)
(-0.162586 -0.000219852 0.0473516)
(-0.180936 -0.00192926 -0.00657245)
(-0.181209 -0.00285574 -0.0761337)
(-0.155762 -0.00236642 -0.146314)
(-0.0997317 -0.000896768 -0.176382)
(-0.0288213 3.39009e-05 -0.101096)
(-0.0100854 0.00699454 0.0504981)
(-0.042387 0.00975115 0.0930795)
(-0.0857716 0.00821348 0.0994262)
(-0.124238 0.00450566 0.083962)
(-0.154873 -0.000238697 0.0506409)
(-0.173974 -0.00478999 -0.00103931)
(-0.175864 -0.0073416 -0.0685638)
(-0.152204 -0.00613802 -0.137489)
(-0.097636 -0.00223931 -0.168181)
(-0.0282616 0.000136 -0.0973054)
(-0.0086784 0.00951523 0.0496528)
(-0.0361744 0.012881 0.0904648)
(-0.0733143 0.0109617 0.0973326)
(-0.107242 0.00643536 0.0847249)
(-0.135833 0.000674334 0.0562366)
(-0.155722 -0.00487374 0.0106812)
(-0.160766 -0.00810684 -0.0507291)
(-0.141576 -0.00678797 -0.115383)
(-0.0915638 -0.00212306 -0.147064)
(-0.0267027 0.000262111 -0.0874322)
(-0.0061023 0.00819569 0.0448006)
(-0.0252906 0.0105145 0.0791961)
(-0.0514964 0.00905886 0.0857097)
(-0.0765292 0.0058288 0.077691)
(-0.0995019 0.00182673 0.05807)
(-0.118006 -0.00190458 0.0250358)
(-0.126281 -0.00396964 -0.0220278)
(-0.114761 -0.00285803 -0.0747285)
(-0.0756106 0.000117208 -0.105352)
(-0.022494 0.000195961 -0.0671085)
(-0.00223486 0.00316988 0.0272104)
(-0.00946558 0.00385389 0.044048)
(-0.0195394 0.00334239 0.0473644)
(-0.0297658 0.00230118 0.045017)
(-0.0405437 0.00107796 0.0383178)
(-0.0511305 5.28754e-05 0.0256926)
(-0.0582944 -0.000330376 0.00543737)
(-0.0558656 0.000298322 -0.0202745)
(-0.0378752 0.0010441 -0.0398887)
(-0.0116735 3.44938e-05 -0.0308297)
(-0.00369536 -0.00380027 0.0400806)
(-0.0122336 -0.0042972 0.0609601)
(-0.021717 -0.0030089 0.0631387)
(-0.0311137 -0.00073512 0.0586914)
(-0.0426691 0.00207894 0.0495245)
(-0.0572196 0.00483374 0.0330212)
(-0.0716789 0.00641359 0.0053776)
(-0.0769734 0.00536632 -0.0332999)
(-0.0613787 0.00212789 -0.0685059)
(-0.0224279 -0.000361228 -0.0621285)
(-0.00848741 -0.00958837 0.0651448)
(-0.0303758 -0.0114604 0.109342)
(-0.0568065 -0.00790116 0.115292)
(-0.0809867 -0.00124728 0.103608)
(-0.104646 0.00710414 0.0784922)
(-0.12766 0.0152568 0.0364595)
(-0.144756 0.0199148 -0.0264167)
(-0.14316 0.0170543 -0.104586)
(-0.109077 0.00735998 -0.164137)
(-0.038244 -0.00086757 -0.126604)
(-0.011308 -0.0108719 0.0723376)
(-0.0421033 -0.0137482 0.125351)
(-0.0799196 -0.00923533 0.132223)
(-0.11257 -0.000472858 0.1156)
(-0.140553 0.0104637 0.080746)
(-0.16304 0.0207283 0.024828)
(-0.175175 0.025906 -0.0546628)
(-0.165599 0.0215485 -0.148896)
(-0.123609 0.00932412 -0.215504)
(-0.043 -0.000544357 -0.157988)
(-0.0127408 -0.00786671 0.0740259)
(-0.0484886 -0.0102548 0.129672)
(-0.0925243 -0.00675254 0.136305)
(-0.129029 0.000139311 0.116905)
(-0.157727 0.00865794 0.0773752)
(-0.177772 0.0163682 0.0156447)
(-0.185561 0.0197397 -0.0699483)
(-0.17179 0.0158473 -0.169651)
(-0.127899 0.00669027 -0.238285)
(-0.0447749 -0.000199122 -0.171794)
(-0.0132874 -0.00281158 0.0742761)
(-0.0510947 -0.00371336 0.130532)
(-0.0976941 -0.00241918 0.136905)
(-0.135547 0.000137044 0.116375)
(-0.164063 0.00327204 0.0751584)
(-0.182592 0.00605021 0.0115786)
(-0.188402 0.00715046 -0.0758035)
(-0.173294 0.00562022 -0.177195)
(-0.12936 0.00233837 -0.246562)
(-0.045533 -3.07492e-05 -0.176899)
(-0.0132874 0.00281158 0.0742761)
(-0.0510947 0.00371335 0.130532)
(-0.0976941 0.00241917 0.136905)
(-0.135547 -0.000137053 0.116375)
(-0.164063 -0.00327205 0.0751584)
(-0.182592 -0.00605022 0.0115786)
(-0.188402 -0.00715046 -0.0758035)
(-0.173294 -0.00562021 -0.177195)
(-0.12936 -0.00233837 -0.246562)
(-0.045533 3.07519e-05 -0.176899)
(-0.0127408 0.00786671 0.0740259)
(-0.0484886 0.0102548 0.129672)
(-0.0925243 0.00675253 0.136305)
(-0.129029 -0.000139319 0.116905)
(-0.157727 -0.00865794 0.0773752)
(-0.177772 -0.0163682 0.0156447)
(-0.185561 -0.0197397 -0.0699483)
(-0.17179 -0.0158473 -0.169651)
(-0.127899 -0.00669027 -0.238285)
(-0.0447749 0.000199125 -0.171794)
(-0.011308 0.0108719 0.0723376)
(-0.0421033 0.0137482 0.125351)
(-0.0799196 0.00923533 0.132223)
(-0.11257 0.000472854 0.1156)
(-0.140553 -0.0104637 0.080746)
(-0.16304 -0.0207283 0.024828)
(-0.175175 -0.025906 -0.0546628)
(-0.165599 -0.0215485 -0.148896)
(-0.123609 -0.00932411 -0.215504)
(-0.043 0.000544359 -0.157988)
(-0.00848741 0.00958837 0.0651448)
(-0.0303758 0.0114604 0.109342)
(-0.0568065 0.00790116 0.115292)
(-0.0809867 0.00124728 0.103608)
(-0.104646 -0.00710414 0.0784923)
(-0.12766 -0.0152568 0.0364595)
(-0.144756 -0.0199148 -0.0264167)
(-0.14316 -0.0170543 -0.104586)
(-0.109077 -0.00735998 -0.164137)
(-0.038244 0.000867572 -0.126604)
(-0.00369536 0.00380027 0.0400806)
(-0.0122337 0.0042972 0.0609601)
(-0.021717 0.0030089 0.0631387)
(-0.0311137 0.00073512 0.0586914)
(-0.0426691 -0.00207894 0.0495245)
(-0.0572196 -0.00483374 0.0330212)
(-0.0716789 -0.00641359 0.00537761)
(-0.0769734 -0.00536632 -0.0332998)
(-0.0613787 -0.00212789 -0.0685059)
(-0.0224279 0.000361229 -0.0621285)
(-0.00748187 -0.00464692 0.0578375)
(-0.0181013 -0.0047477 0.0781136)
(-0.0235888 -0.00226546 0.0755879)
(-0.0281468 0.00171677 0.0668373)
(-0.0367157 0.00664241 0.0544791)
(-0.0526718 0.0117701 0.0347576)
(-0.0747361 0.0152761 0.00128504)
(-0.0917925 0.014044 -0.0508711)
(-0.0868602 0.00718083 -0.106906)
(-0.0358715 -0.00123142 -0.114903)
(-0.0136783 -0.0111976 0.0911622)
(-0.0380779 -0.0121342 0.139792)
(-0.0584804 -0.00564007 0.140747)
(-0.0735985 0.00521834 0.123483)
(-0.0891984 0.0185679 0.0937774)
(-0.109033 0.0317791 0.0466001)
(-0.131145 0.0396482 -0.0261923)
(-0.142232 0.0348049 -0.127912)
(-0.127434 0.0160942 -0.226275)
(-0.0498695 -0.00386439 -0.216431)
(-0.0164729 -0.012196 0.100166)
(-0.0491424 -0.0141589 0.160089)
(-0.0796956 -0.00643413 0.163016)
(-0.100797 0.00690694 0.141697)
(-0.117137 0.0229271 0.103288)
(-0.13225 0.037596 0.0433619)
(-0.14577 0.0444362 -0.0453422)
(-0.147596 0.0364167 -0.165276)
(-0.13026 0.0150821 -0.278338)
(-0.0510393 -0.00358478 -0.257828)
(-0.017672 -0.0086169 0.102259)
(-0.0545946 -0.0103737 0.165694)
(-0.0903261 -0.00462157 0.169086)
(-0.113692 0.00543275 0.145913)
(-0.128732 0.0172823 0.104054)
(-0.139296 0.0275252 0.0396824)
(-0.147028 0.0312734 -0.0540414)
(-0.144821 0.0243113 -0.180121)
(-0.129196 0.00934797 -0.298814)
(-0.0516539 -0.00215434 -0.274586)
(-0.0180635 -0.00304369 0.102613)
(-0.0566262 -0.0037233 0.166917)
(-0.094325 -0.00164135 0.170351)
(-0.118269 0.00200779 0.146512)
(-0.132293 0.00625897 0.103604)
(-0.140621 0.00981674 0.0380529)
(-0.146116 0.0109152 -0.0569977)
(-0.143078 0.00824537 -0.185174)
(-0.129094 0.00305969 -0.306108)
(-0.0522491 -0.000671547 -0.280753)
(-0.0180635 0.00304369 0.102613)
(-0.0566262 0.0037233 0.166917)
(-0.094325 0.00164134 0.170351)
(-0.118269 -0.0020078 0.146512)
(-0.132293 -0.00625898 0.103604)
(-0.140621 -0.00981674 0.0380529)
(-0.146116 -0.0109152 -0.0569977)
(-0.143078 -0.00824537 -0.185174)
(-0.129094 -0.00305969 -0.306108)
(-0.0522491 0.000671551 -0.280753)
(-0.017672 0.00861691 0.102259)
(-0.0545946 0.0103737 0.165694)
(-0.0903261 0.00462156 0.169086)
(-0.113692 -0.00543275 0.145913)
(-0.128732 -0.0172823 0.104054)
(-0.139296 -0.0275252 0.0396824)
(-0.147028 -0.0312734 -0.0540414)
(-0.144821 -0.0243113 -0.180121)
(-0.129196 -0.00934796 -0.298814)
(-0.0516539 0.00215434 -0.274586)
(-0.0164729 0.012196 0.100166)
(-0.0491424 0.0141589 0.160089)
(-0.0796956 0.00643412 0.163016)
(-0.100797 -0.00690695 0.141697)
(-0.117137 -0.0229271 0.103288)
(-0.13225 -0.037596 0.0433619)
(-0.14577 -0.0444362 -0.0453422)
(-0.147596 -0.0364167 -0.165276)
(-0.13026 -0.0150821 -0.278338)
(-0.0510393 0.00358478 -0.257828)
(-0.0136783 0.0111976 0.0911622)
(-0.0380779 0.0121342 0.139792)
(-0.0584804 0.00564007 0.140747)
(-0.0735985 -0.00521834 0.123483)
(-0.0891984 -0.0185679 0.0937774)
(-0.109033 -0.0317791 0.0466001)
(-0.131145 -0.0396482 -0.0261923)
(-0.142232 -0.0348049 -0.127912)
(-0.127434 -0.0160942 -0.226275)
(-0.0498695 0.0038644 -0.216431)
(-0.00748187 0.00464692 0.0578375)
(-0.0181013 0.0047477 0.0781136)
(-0.0235888 0.00226546 0.0755879)
(-0.0281468 -0.00171677 0.0668373)
(-0.0367157 -0.00664241 0.0544791)
(-0.0526718 -0.0117701 0.0347576)
(-0.0747361 -0.0152761 0.00128504)
(-0.0917925 -0.014044 -0.0508711)
(-0.0868602 -0.00718083 -0.106906)
(-0.0358715 0.00123143 -0.114903)
(-0.0168086 -0.00641664 0.0815697)
(-0.029929 -0.00637405 0.0915992)
(-0.0213392 -0.00272999 0.0797728)
(-0.012744 0.00290385 0.064134)
(-0.010858 0.00964181 0.0482148)
(-0.0212609 0.0169303 0.0271304)
(-0.0467658 0.0227742 -0.00855051)
(-0.0765266 0.0218355 -0.0706337)
(-0.0963046 0.0106422 -0.149767)
(-0.0417402 -0.00566586 -0.193763)
(-0.0265388 -0.0143802 0.121295)
(-0.053739 -0.0149836 0.163456)
(-0.051974 -0.00616587 0.153817)
(-0.0421355 0.00774557 0.128122)
(-0.0344141 0.024279 0.0954248)
(-0.0358537 0.0410486 0.0499796)
(-0.051732 0.0526859 -0.0205632)
(-0.071832 0.0477148 -0.133144)
(-0.0967981 0.0201701 -0.270376)
(-0.0363024 -0.0133349 -0.323492)
(-0.029608 -0.0146876 0.130455)
(-0.0639633 -0.0165527 0.186699)
(-0.0692521 -0.00686934 0.180612)
(-0.0606908 0.00876443 0.152374)
(-0.0485122 0.0269849 0.113296)
(-0.0395996 0.0439119 0.0581822)
(-0.0420318 0.0530954 -0.0245124)
(-0.0498731 0.0441448 -0.15384)
(-0.0780592 0.0154454 -0.311449)
(-0.0283236 -0.011378 -0.364898)
(-0.0305498 -0.009968 0.132225)
(-0.0679996 -0.0117107 0.192892)
(-0.0767187 -0.00484349 0.188351)
(-0.0685226 0.00633003 0.159628)
(-0.0535151 0.0191341 0.118704)
(-0.038686 0.0303491 0.0606944)
(-0.0343741 0.0352418 -0.025623)
(-0.0377561 0.0276166 -0.160769)
(-0.0705189 0.00872519 -0.326169)
(-0.0267328 -0.00658245 -0.380288)
(-0.0307491 -0.00345133 0.13243)
(-0.0691904 -0.00413192 0.194155)
(-0.0790292 -0.00170359 0.190079)
(-0.0707308 0.00225258 0.161323)
(-0.0544015 0.00673161 0.120031)
(-0.037231 0.010532 0.0613744)
(-0.0307595 0.0119725 -0.0259603)
(-0.033528 0.00910701 -0.163264)
(-0.0690529 0.00276226 -0.331615)
(-0.0270116 -0.00203426 -0.385984)
(-0.0307491 0.00345133 0.13243)
(-0.0691904 0.00413191 0.194155)
(-0.0790292 0.00170358 0.190079)
(-0.0707308 -0.00225258 0.161323)
(-0.0544015 -0.00673162 0.120031)
(-0.037231 -0.010532 0.0613744)
(-0.0307595 -0.0119725 -0.0259603)
(-0.033528 -0.009107 -0.163264)
(-0.0690529 -0.00276226 -0.331615)
(-0.0270116 0.00203427 -0.385984)
(-0.0305498 0.009968 0.132225)
(-0.0679996 0.0117107 0.192892)
(-0.0767187 0.00484348 0.188351)
(-0.0685226 -0.00633004 0.159628)
(-0.0535151 -0.0191342 0.118704)
(-0.038686 -0.0303491 0.0606944)
(-0.0343741 -0.0352417 -0.025623)
(-0.0377561 -0.0276166 -0.160769)
(-0.0705189 -0.00872518 -0.326169)
(-0.0267328 0.00658245 -0.380288)
(-0.029608 0.0146876 0.130455)
(-0.0639633 0.0165527 0.186699)
(-0.0692521 0.00686934 0.180612)
(-0.0606908 -0.00876444 0.152374)
(-0.0485122 -0.0269849 0.113296)
(-0.0395996 -0.0439119 0.0581822)
(-0.0420318 -0.0530954 -0.0245124)
(-0.0498731 -0.0441448 -0.15384)
(-0.0780592 -0.0154454 -0.311449)
(-0.0283236 0.011378 -0.364898)
(-0.0265388 0.0143802 0.121295)
(-0.0537391 0.0149836 0.163456)
(-0.051974 0.00616586 0.153817)
(-0.0421355 -0.00774557 0.128122)
(-0.0344141 -0.024279 0.0954248)
(-0.0358537 -0.0410486 0.0499797)
(-0.051732 -0.0526859 -0.0205632)
(-0.071832 -0.0477148 -0.133144)
(-0.0967981 -0.0201701 -0.270376)
(-0.0363024 0.0133349 -0.323492)
(-0.0168086 0.00641664 0.0815697)
(-0.029929 0.00637405 0.0915992)
(-0.0213392 0.00272999 0.0797728)
(-0.012744 -0.00290385 0.064134)
(-0.010858 -0.00964181 0.0482148)
(-0.0212609 -0.0169303 0.0271304)
(-0.0467658 -0.0227742 -0.00855051)
(-0.0765266 -0.0218355 -0.0706337)
(-0.0963046 -0.0106422 -0.149767)
(-0.0417402 0.00566586 -0.193763)
(-0.0239457 -0.0111545 0.150684)
(-0.0212402 -0.0115751 0.0983458)
(0.0256935 -0.00708487 0.0629896)
(0.059077 -0.000721933 0.0418794)
(0.0798415 0.00643952 0.0258574)
(0.0828605 0.0142629 0.00842467)
(0.0615565 0.0216668 -0.0199042)
(0.0247901 0.0212071 -0.0772983)
(-0.0423761 0.00583669 -0.17253)
(-0.00690846 -0.0173454 -0.258723)
(-0.0429452 -0.0226508 0.209974)
(-0.0438962 -0.025093 0.168556)
(0.0186244 -0.0161109 0.126277)
(0.07308 -0.00252215 0.0946159)
(0.117296 0.0132862 0.0660002)
(0.145785 0.0299126 0.0331772)
(0.144995 0.044807 -0.0156428)
(0.127014 0.0436537 -0.105985)
(0.0376907 0.0116952 -0.254961)
(0.0429063 -0.0308021 -0.368505)
(-0.0483178 -0.0202355 0.219919)
(-0.0538025 -0.0249018 0.18804)
(0.00756345 -0.0168873 0.148605)
(0.0663752 -0.00355311 0.115948)
(0.119257 0.0123433 0.083851)
(0.16145 0.0282181 0.0453302)
(0.174769 0.0404697 -0.0104919)
(0.171294 0.0367958 -0.109678)
(0.0775708 0.00758639 -0.274383)
(0.0620574 -0.0215819 -0.394426)
(-0.0492596 -0.0127552 0.220753)
(-0.0564148 -0.0165328 0.191814)
(0.00360169 -0.0114062 0.154145)
(0.0633378 -0.00258321 0.122056)
(0.118997 0.00791116 0.0894472)
(0.166212 0.0181028 0.0492758)
(0.184374 0.0251703 -0.00902266)
(0.185134 0.0219307 -0.111302)
(0.0873263 0.00464255 -0.281327)
(0.0650511 -0.0111506 -0.403274)
(-0.0492244 -0.00426432 0.220452)
(-0.0566492 -0.00565767 0.192071)
(0.00304886 -0.00392087 0.154976)
(0.0631467 -0.000906622 0.123245)
(0.11966 0.00265895 0.0907147)
(0.168313 0.00606949 0.0502237)
(0.187578 0.00830665 -0.00887923)
(0.188662 0.00711964 -0.112425)
(0.0883405 0.001589 -0.284252)
(0.0646596 -0.00327516 -0.406513)
(-0.0492244 0.00426432 0.220452)
(-0.0566492 0.00565766 0.192071)