/*--------------------------------*- C++ -*----------------------------------*\
  =========                 |
  \\      /  F ield         | OpenFOAM: The Open Source CFD Toolbox
   \\    /   O peration     | Website:  https://openfoam.org
    \\  /    A nd           | Version:  9
     \\/     M anipulation  |
\*---------------------------------------------------------------------------*/
FoamFile
{
    format      ascii;
    class       surfaceScalarField;
    location    "0.72";
    object      phi;
}
// * * * * * * * * * * * * * * * * * * * * * * * * * * * * * * * * * * * * * //

dimensions      [0 3 -1 0 0 0 0];

internalField   nonuniform List<scalar> 
2700
(
-5.82989e-08
-1.07473e-07
1.65667e-07
-3.02049e-07
-1.20383e-07
3.64133e-07
-6.26278e-07
-1.21016e-07
4.45245e-07
-9.46367e-07
-1.42385e-07
4.62475e-07
-1.17312e-06
-1.95102e-07
4.21854e-07
-1.20737e-06
-2.73471e-07
3.07722e-07
-9.82299e-07
-3.49619e-07
1.24547e-07
-5.40941e-07
-3.73442e-07
-6.79158e-08
-1.03324e-07
-2.98237e-07
-1.39381e-07
-9.86974e-08
-4.62607e-09
-1.57724e-07
-2.33928e-07
2.8418e-07
-6.86198e-07
-3.11175e-07
7.19266e-07
-1.35638e-06
-3.3257e-07
8.81734e-07
-1.98573e-06
-3.73628e-07
8.60596e-07
-2.40129e-06
-4.57134e-07
6.77591e-07
-2.42642e-06
-5.71463e-07
3.23127e-07
-1.9518e-06
-6.69175e-07
-1.55069e-07
-1.0797e-06
-6.76325e-07
-5.69211e-07
-2.34056e-07
-5.35328e-07
-6.08556e-07
-2.16834e-07
-1.1592e-07
-2.36471e-07
-2.55571e-07
2.58115e-07
-9.59925e-07
-3.63983e-07
7.76262e-07
-1.85318e-06
-3.97292e-07
9.57982e-07
-2.66812e-06
-4.39563e-07
8.80873e-07
-3.17762e-06
-5.16334e-07
5.68699e-07
-3.16112e-06
-6.17009e-07
2.90432e-08
-2.4892e-06
-6.89283e-07
-6.51807e-07
-1.32453e-06
-6.76436e-07
-1.16456e-06
-2.49967e-07
-5.33911e-07
-1.07598e-06
-2.35005e-07
-2.31796e-07
-2.90542e-07
-1.62126e-07
1.97096e-07
-1.14333e-06
-2.37741e-07
7.26547e-07
-2.18063e-06
-2.6165e-07
9.01655e-07
-3.10917e-06
-2.87443e-07
7.76421e-07
-3.66661e-06
-3.31085e-07
3.72193e-07
-3.5949e-06
-3.85507e-07
-3.03212e-07
-2.77619e-06
-4.22306e-07
-1.08569e-06
-1.41852e-06
-4.08358e-07
-1.62575e-06
-2.21708e-07
-3.22229e-07
-1.40849e-06
-1.47515e-07
-3.09198e-07
-3.18598e-07
-2.49114e-12
1.56474e-07
-1.23647e-06
-2.10233e-12
6.80135e-07
-2.34501e-06
-1.61763e-12
8.46888e-07
-3.32727e-06
-1.26368e-12
6.94822e-07
-3.90227e-06
-8.49586e-13
2.4392e-07
-3.79787e-06
-5.92811e-13
-4.89911e-07
-2.89925e-06
-4.27011e-13
-1.32092e-06
-1.4459e-06
-3.06294e-13
-1.86171e-06
-1.9753e-07
-2.25137e-13
-1.5706e-06
-2.19874e-13
-3.45045e-07
-3.18597e-07
1.6212e-07
1.56475e-07
-1.23647e-06
2.37736e-07
6.80135e-07
-2.34501e-06
2.61647e-07
8.46888e-07
-3.32727e-06
2.8744e-07
6.94822e-07
-3.90227e-06
3.31084e-07
2.4392e-07
-3.79787e-06
3.85506e-07
-4.89911e-07
-2.89925e-06
4.22305e-07
-1.32092e-06
-1.4459e-06
4.08358e-07
-1.86171e-06
-1.9753e-07
3.22229e-07
-1.5706e-06
1.47514e-07
-3.45045e-07
-2.9054e-07
2.55563e-07
1.97098e-07
-1.14333e-06
3.63977e-07
7.26548e-07
-2.18063e-06
3.97288e-07
9.01656e-07
-3.10917e-06
4.3956e-07
7.76421e-07
-3.66661e-06
5.16332e-07
3.72193e-07
-3.5949e-06
6.17008e-07
-3.03212e-07
-2.77619e-06
6.89283e-07
-1.08569e-06
-1.41852e-06
6.76436e-07
-1.62575e-06
-2.21708e-07
5.33911e-07
-1.40849e-06
2.35005e-07
-3.09198e-07
-2.36468e-07
2.33913e-07
2.58118e-07
-9.59921e-07
3.11167e-07
7.76264e-07
-1.85318e-06
3.32566e-07
9.57983e-07
-2.66812e-06
3.73626e-07
8.80873e-07
-3.17762e-06
4.57133e-07
5.68699e-07
-3.16112e-06
5.71462e-07
2.90433e-08
-2.4892e-06
6.69174e-07
-6.51807e-07
-1.32453e-06
6.76324e-07
-1.16456e-06
-2.49967e-07
5.35328e-07
-1.07598e-06
2.16834e-07
-2.31796e-07
-1.57714e-07
1.07435e-07
2.84191e-07
-6.8619e-07
1.20373e-07
7.19271e-07
-1.35637e-06
1.21013e-07
8.81736e-07
-1.98573e-06
1.42384e-07
8.60598e-07
-2.40129e-06
1.95101e-07
6.77591e-07
-2.42642e-06
2.7347e-07
3.23127e-07
-1.9518e-06
3.49619e-07
-1.55069e-07
-1.0797e-06
3.73441e-07
-5.69211e-07
-2.34056e-07
2.98237e-07
-6.08556e-07
9.86974e-08
-1.1592e-07
-5.82658e-08
1.65702e-07
-3.02036e-07
3.64143e-07
-6.26271e-07
4.45248e-07
-9.46363e-07
4.62476e-07
-1.17312e-06
4.21854e-07
-1.20737e-06
3.07723e-07
-9.82298e-07
1.24548e-07
-5.40941e-07
-6.79158e-08
-1.03323e-07
-1.39381e-07
-4.62613e-09
-2.1842e-07
-2.81186e-07
6.65272e-07
-7.18892e-07
-3.75978e-07
1.24058e-06
-1.32315e-06
-3.9147e-07
1.44097e-06
-1.89983e-06
-3.99415e-07
1.43857e-06
-2.30337e-06
-4.30119e-07
1.25551e-06
-2.37189e-06
-4.8599e-07
8.62242e-07
-1.98941e-06
-5.39328e-07
2.8139e-07
-1.1973e-06
-5.31646e-07
-3.28376e-07
-3.31323e-07
-3.94932e-07
-6.10428e-07
-8.57788e-08
-2.5017e-07
-5.9935e-07
-5.14116e-07
1.11646e-06
-1.81801e-06
-7.46873e-07
2.30883e-06
-3.2176e-06
-7.92367e-07
2.68222e-06
-4.46886e-06
-8.07087e-07
2.51953e-06
-5.25897e-06
-8.51501e-07
1.88909e-06
-5.28991e-06
-9.26589e-07
7.94663e-07
-4.37939e-06
-9.89556e-07
-6.15366e-07
-2.66004e-06
-9.46738e-07
-1.87347e-06
-8.20645e-07
-7.15082e-07
-2.1278e-06
-2.34036e-07
-7.88308e-07
-8.92343e-07
-5.23747e-07
1.16009e-06
-2.63309e-06
-7.94198e-07
2.56434e-06
-4.56958e-06
-8.50799e-07
2.9529e-06
-6.22813e-06
-8.6421e-07
2.59655e-06
-7.1918e-06
-8.99521e-07
1.58038e-06
-7.11424e-06
-9.58251e-07
-1.68489e-08
-5.7835e-06
-9.89727e-07
-1.98238e-06
-3.44633e-06
-9.28207e-07
-3.52026e-06
-1.0358e-06
-7.0901e-07
-3.49259e-06
-2.72999e-07
-1.22863e-06
-1.08709e-06
-3.22142e-07
1.08258e-06
-3.17523e-06
-4.98642e-07
2.51914e-06
-5.45262e-06
-5.3645e-07
2.8647e-06
-7.34538e-06
-5.43268e-07
2.34824e-06
-8.37834e-06
-5.59844e-07
1.06548e-06
-8.17359e-06
-5.8734e-07
-8.78876e-07
-6.54427e-06
-5.95278e-07
-3.10946e-06
-3.82068e-06
-5.52031e-07
-4.72552e-06
-1.10059e-06
-4.24971e-07
-4.41262e-06
-1.76193e-07
-1.5066e-06
-1.18406e-06
-2.11826e-12
1.0184e-06
-3.44596e-06
-1.82851e-12
2.44339e-06
-5.88893e-06
-1.46256e-12
2.75341e-06
-7.88687e-06
-1.14203e-12
2.14949e-06
-8.93908e-06
-7.70377e-13
7.36285e-07
-8.65448e-06
-5.31747e-13
-1.36184e-06
-6.87049e-06
-3.80746e-13
-3.70019e-06
-3.96344e-06
-2.83228e-13
-5.32079e-06
-1.11154e-06
-2.26412e-13
-4.84747e-06
-2.35484e-13
-1.63278e-06
-1.18406e-06
3.22137e-07
1.0184e-06
-3.44596e-06
4.98638e-07
2.44339e-06
-5.88893e-06
5.36447e-07
2.75341e-06
-7.88687e-06
5.43266e-07
2.14949e-06
-8.93907e-06
5.59842e-07
7.36286e-07
-8.65448e-06
5.87339e-07
-1.36184e-06
-6.87049e-06
5.95277e-07
-3.70019e-06
-3.96344e-06
5.5203e-07
-5.32079e-06
-1.11154e-06
4.24971e-07
-4.84747e-06
1.76193e-07
-1.63278e-06
-1.08708e-06
5.23741e-07
1.08258e-06
-3.17523e-06
7.94193e-07
2.51914e-06
-5.45262e-06
8.50796e-07
2.8647e-06
-7.34538e-06
8.64207e-07
2.34824e-06
-8.37834e-06
8.9952e-07
1.06548e-06
-8.17359e-06
9.5825e-07
-8.78876e-07
-6.54427e-06
9.89726e-07
-3.10946e-06
-3.82068e-06
9.28207e-07
-4.72552e-06
-1.10059e-06
7.0901e-07
-4.41262e-06
2.72999e-07
-1.5066e-06
-8.9234e-07
5.14107e-07
1.16009e-06
-2.63309e-06
7.46868e-07
2.56434e-06
-4.56958e-06
7.92364e-07
2.9529e-06
-6.22813e-06
8.07085e-07
2.59655e-06
-7.1918e-06
8.515e-07
1.58038e-06
-7.11424e-06
9.26588e-07
-1.68487e-08
-5.7835e-06
9.89555e-07
-1.98238e-06
-3.44633e-06
9.46738e-07
-3.52026e-06
-1.0358e-06
7.15082e-07
-3.49259e-06
2.34035e-07
-1.22863e-06
-5.99345e-07
2.81175e-07
1.11647e-06
-1.81801e-06
3.75973e-07
2.30883e-06
-3.2176e-06
3.91468e-07
2.68222e-06
-4.46886e-06
3.99413e-07
2.51953e-06
-5.25897e-06
4.30119e-07
1.88909e-06
-5.28991e-06
4.8599e-07
7.94663e-07
-4.37939e-06
5.39328e-07
-6.15366e-07
-2.66004e-06
5.31646e-07
-1.87347e-06
-8.20645e-07
3.94932e-07
-2.1278e-06
8.57788e-08
-7.88309e-07
-2.18409e-07
6.65287e-07
-7.18884e-07
1.24059e-06
-1.32315e-06
1.44098e-06
-1.89983e-06
1.43857e-06
-2.30336e-06
1.25551e-06
-2.37189e-06
8.62242e-07
-1.98941e-06
2.8139e-07
-1.1973e-06
-3.28377e-07
-3.31323e-07
-6.10428e-07
-2.5017e-07
-3.31259e-07
-4.29125e-07
1.42566e-06
-1.00203e-06
-5.76704e-07
2.48806e-06
-1.78607e-06
-5.78471e-07
2.80348e-06
-2.55081e-06
-5.35877e-07
2.73919e-06
-3.14232e-06
-5.03025e-07
2.35004e-06
-3.35611e-06
-5.03924e-07
1.57995e-06
-2.98862e-06
-5.26952e-07
4.40859e-07
-1.97806e-06
-5.2301e-07
-8.15928e-07
-6.72727e-07
-3.94305e-07
-1.52146e-06
-4.02154e-08
-8.82681e-07
-9.54462e-07
-7.47241e-07
2.38904e-06
-2.6942e-06
-1.07691e-06
4.54877e-06
-4.6177e-06
-1.08658e-06
5.11383e-06
-6.33905e-06
-9.95473e-07
4.70048e-06
-7.50362e-06
-9.08473e-07
3.4591e-06
-7.73632e-06
-8.644e-07
1.38784e-06
-6.7147e-06
-8.49942e-07
-1.314e-06
-4.41725e-06
-8.08202e-07
-3.88572e-06
-1.58432e-06
-6.24234e-07
-4.73081e-06
-1.55288e-07
-2.25755e-06
-1.44793e-06
-7.39086e-07
2.59986e-06
-3.99278e-06
-1.10454e-06
5.13681e-06
-6.70124e-06
-1.11654e-06
5.69132e-06
-8.99089e-06
-1.01133e-06
4.90206e-06
-1.03893e-05
-8.99128e-07
2.96944e-06
-1.04683e-05
-8.17916e-07
1.56572e-08
-8.89902e-06
-7.60756e-07
-3.64082e-06
-5.74923e-06
-7.02541e-07
-6.77571e-06
-2.02631e-06
-5.57763e-07
-7.28198e-06
-1.90615e-07
-3.21961e-06
-1.77941e-06
-4.46898e-07
2.5698e-06
-4.8596e-06
-6.79743e-07
5.17454e-06
-8.05616e-06
-6.86855e-07
5.63158e-06
-1.065e-05
-6.1642e-07
4.54719e-06
-1.21101e-05
-5.37033e-07
2.1635e-06
-1.20017e-05
-4.71524e-07
-1.33366e-06
-1.00447e-05
-4.22837e-07
-5.40438e-06
-6.38767e-06
-3.84441e-07
-8.70069e-06
-2.19982e-06
-3.12634e-07
-8.84559e-06
-1.23579e-07
-3.77345e-06
-1.94415e-06
-1.65743e-12
2.51566e-06
-5.28942e-06
-1.42737e-12
5.10891e-06
-8.71684e-06
-1.22618e-12
5.49398e-06
-1.14373e-05
-1.00231e-12
4.25351e-06
-1.2896e-05
-7.17534e-13
1.658e-06
-1.26709e-05
-5.22154e-13
-2.05848e-06
-1.05179e-05
-3.90013e-13
-6.27609e-06
-6.6325e-06
-3.14153e-13
-9.59058e-06
-2.25443e-06
-2.73369e-13
-9.53818e-06
-2.71567e-13
-4.01078e-06
-1.94415e-06
4.46895e-07
2.51566e-06
-5.28942e-06
6.7974e-07
5.10892e-06
-8.71684e-06
6.86852e-07
5.49398e-06
-1.14373e-05
6.16418e-07
4.25351e-06
-1.2896e-05
5.37032e-07
1.658e-06
-1.26709e-05
4.71523e-07
-2.05848e-06
-1.05179e-05
4.22836e-07
-6.27609e-06
-6.6325e-06
3.8444e-07
-9.59058e-06
-2.25443e-06
3.12634e-07
-9.53818e-06
1.23579e-07
-4.01078e-06
-1.77941e-06
7.39082e-07
2.5698e-06
-4.8596e-06
1.10454e-06
5.17454e-06
-8.05616e-06
1.11654e-06
5.63158e-06
-1.065e-05
1.01133e-06
4.54719e-06
-1.21101e-05
8.99127e-07
2.1635e-06
-1.20017e-05
8.17915e-07
-1.33366e-06
-1.00447e-05
7.60755e-07
-5.40438e-06
-6.38767e-06
7.0254e-07
-8.70069e-06
-2.19982e-06
5.57762e-07
-8.84559e-06
1.90614e-07
-3.77345e-06
-1.44793e-06
7.47237e-07
2.59987e-06
-3.99278e-06
1.07691e-06
5.13682e-06
-6.70124e-06
1.08658e-06
5.69132e-06
-8.99089e-06
9.95472e-07
4.90206e-06
-1.03893e-05
9.08472e-07
2.96944e-06
-1.04683e-05
8.644e-07
1.56573e-08
-8.89902e-06
8.49941e-07
-3.64082e-06
-5.74923e-06
8.08201e-07
-6.77571e-06
-2.02631e-06
6.24234e-07
-7.28198e-06
1.55288e-07
-3.21961e-06
-9.5446e-07
4.29122e-07
2.38904e-06
-2.6942e-06
5.76701e-07
4.54878e-06
-4.6177e-06
5.78469e-07
5.11383e-06
-6.33905e-06
5.35876e-07
4.70049e-06
-7.50362e-06
5.03024e-07
3.4591e-06
-7.73632e-06
5.03924e-07
1.38785e-06
-6.7147e-06
5.26952e-07
-1.314e-06
-4.41725e-06
5.2301e-07
-3.88572e-06
-1.58432e-06
3.94305e-07
-4.73081e-06
4.02153e-08
-2.25755e-06
-3.31256e-07
1.42566e-06
-1.00203e-06
2.48807e-06
-1.78606e-06
2.80348e-06
-2.55081e-06
2.73919e-06
-3.14232e-06
2.35004e-06
-3.35611e-06
1.57995e-06
-2.98862e-06
4.40859e-07
-1.97806e-06
-8.15927e-07
-6.72727e-07
-1.52146e-06
-8.82682e-07
-4.14025e-07
-5.58376e-07
2.39806e-06
-1.19839e-06
-7.28565e-07
4.001e-06
-2.10828e-06
-6.76115e-07
4.38948e-06
-3.05164e-06
-5.31753e-07
4.2143e-06
-3.90521e-06
-3.8089e-07
3.58451e-06
-4.43166e-06
-2.82319e-07
2.38871e-06
-4.28888e-06
-2.6155e-07
5.59635e-07
-3.1788e-06
-3.11755e-07
-1.61425e-06
-1.30907e-06
-2.96966e-07
-3.09423e-06
4.30927e-10
-2.19218e-06
-1.23186e-06
-9.47567e-07
4.0101e-06
-3.36224e-06
-1.31664e-06
7.26722e-06
-5.68319e-06
-1.21166e-06
7.97033e-06
-7.83248e-06
-9.10631e-07
7.22865e-06
-9.48601e-06
-5.76575e-07
5.30832e-06
-1.02126e-05
-3.20059e-07
2.15215e-06
-9.46983e-06
-2.03435e-07
-2.11486e-06
-6.84503e-06
-2.54198e-07
-6.56807e-06
-2.84313e-06
-3.06855e-07
-8.72282e-06
-4.92194e-08
-5.05103e-06
-1.88682e-06
-9.19921e-07
4.45904e-06
-5.04537e-06
-1.31859e-06
8.29731e-06
-8.33374e-06
-1.20159e-06
8.96961e-06
-1.11608e-05
-8.65653e-07
7.68417e-06
-1.30953e-05
-4.82263e-07
4.80964e-06
-1.3652e-05
-1.6454e-07
4.16821e-07
-1.23227e-05
-7.82298e-09
-5.1658e-06
-8.72493e-06
-5.60088e-08
-1.05716e-05
-3.57058e-06
-1.71526e-07
-1.25717e-05
-6.65525e-08
-6.77286e-06
-2.32549e-06
-5.49545e-07
4.52491e-06
-6.1583e-06
-7.99226e-07
8.48799e-06
-1.00236e-05
-7.22248e-07
9.01757e-06
-1.31708e-05
-5.04086e-07
7.33275e-06
-1.51246e-05
-2.52912e-07
3.88802e-06
-1.54515e-05
-4.10714e-08
-1.13023e-06
-1.36943e-05
6.26719e-08
-7.23212e-06
-9.56355e-06
3.0244e-08
-1.29177e-05
-3.86432e-06
-6.15102e-08
-1.46548e-05
-4.208e-08
-7.66224e-06
-2.54128e-06
-1.24953e-12
4.5074e-06
-6.70157e-06
-1.12853e-12
8.46997e-06
-1.08278e-05
-1.04489e-12
8.89797e-06
-1.40892e-05
-8.86107e-13
7.01087e-06
-1.60032e-05
-6.47689e-13
3.31901e-06
-1.61787e-05
-4.53416e-13
-1.92405e-06
-1.42168e-05
-3.42597e-13
-8.17524e-06
-9.86798e-06
-2.70526e-13
-1.39092e-05
-3.96503e-06
-2.4951e-13
-1.55026e-05
-2.48653e-13
-8.0179e-06
-2.54128e-06
5.49542e-07
4.5074e-06
-6.70157e-06
7.99224e-07
8.46997e-06
-1.08278e-05
7.22246e-07
8.89797e-06
-1.40892e-05
5.04085e-07
7.01087e-06
-1.60032e-05
2.52911e-07
3.31901e-06
-1.61787e-05
4.10706e-08
-1.92405e-06
-1.42168e-05
-6.26725e-08
-8.17524e-06
-9.86798e-06
-3.02445e-08
-1.39092e-05
-3.96503e-06
6.15098e-08
-1.55026e-05
4.20796e-08
-8.0179e-06
-2.32549e-06
9.19919e-07
4.52491e-06
-6.1583e-06
1.31858e-06
8.48799e-06
-1.00236e-05
1.20158e-06
9.01757e-06
-1.31708e-05
8.65652e-07
7.33275e-06
-1.51246e-05
4.82262e-07
3.88802e-06
-1.54515e-05
1.64539e-07
-1.13023e-06
-1.36943e-05
7.82249e-09
-7.23212e-06
-9.56355e-06
5.60084e-08
-1.29177e-05
-3.86432e-06
1.71526e-07
-1.46548e-05
6.65522e-08
-7.66224e-06
-1.88682e-06
9.47564e-07
4.45905e-06
-5.04537e-06
1.31664e-06
8.29731e-06
-8.33374e-06
1.21166e-06
8.96961e-06
-1.11608e-05
9.1063e-07
7.68417e-06
-1.30953e-05
5.76574e-07
4.80964e-06
-1.3652e-05
3.20059e-07
4.16821e-07
-1.23227e-05
2.03435e-07
-5.1658e-06
-8.72492e-06
2.54198e-07
-1.05716e-05
-3.57058e-06
3.06855e-07
-1.25717e-05
4.92192e-08
-6.77286e-06
-1.23186e-06
5.58375e-07
4.0101e-06
-3.36223e-06
7.28564e-07
7.26722e-06
-5.68319e-06
6.76114e-07
7.97033e-06
-7.83248e-06
5.31752e-07
7.22865e-06
-9.48601e-06
3.80889e-07
5.30832e-06
-1.02126e-05
2.82319e-07
2.15215e-06
-9.46982e-06
2.61549e-07
-2.11486e-06
-6.84503e-06
3.11755e-07
-6.56807e-06
-2.84313e-06
2.96966e-07
-8.72282e-06
-4.31141e-10
-5.05103e-06
-4.14023e-07
2.39806e-06
-1.19839e-06
4.001e-06
-2.10828e-06
4.38948e-06
-3.05164e-06
4.2143e-06
-3.90521e-06
3.58451e-06
-4.43166e-06
2.38871e-06
-4.28888e-06
5.59635e-07
-3.1788e-06
-1.61425e-06
-1.30907e-06
-3.09423e-06
-2.19218e-06
-5.05333e-07
-6.58008e-07
3.5614e-06
-1.34591e-06
-8.15057e-07
5.65663e-06
-2.30067e-06
-6.56609e-07
6.00085e-06
-3.37654e-06
-3.42346e-07
5.63252e-06
-4.54259e-06
2.07382e-08
4.72982e-06
-5.56446e-06
2.99792e-07
3.11079e-06
-5.93331e-06
4.01174e-07
5.27317e-07
-4.96616e-06
2.47241e-07
-2.82864e-06
-2.46114e-06
4.52171e-09
-5.60377e-06
9.96556e-09
-4.66329e-06
-1.46783e-06
-1.09329e-06
5.91321e-06
-3.83512e-06
-1.43741e-06
1.02569e-05
-6.36522e-06
-1.12661e-06
1.09704e-05
-8.82061e-06
-4.9409e-07
9.83579e-06
-1.09945e-05
2.21981e-07
7.28094e-06
-1.24692e-05
8.03748e-07
3.12288e-06
-1.24643e-05
1.04349e-06
-2.76199e-06
-9.99265e-06
7.85567e-07
-9.5781e-06
-4.85061e-06
2.45735e-07
-1.41061e-05
1.29075e-08
-9.90459e-06
-2.22024e-06
-1.04421e-06
6.6302e-06
-5.74493e-06
-1.41116e-06
1.17957e-05
-9.32615e-06
-1.07614e-06
1.25004e-05
-1.24776e-05
-3.95109e-07
1.07366e-05
-1.49051e-05
3.6916e-07
7.08997e-06
-1.61742e-05
9.82117e-07
1.50757e-06
-1.55833e-05
1.22326e-06
-5.93648e-06
-1.21826e-05
9.4301e-07
-1.41298e-05
-5.84158e-06
3.59831e-07
-1.90268e-05
1.95727e-08
-1.26211e-05
-2.71266e-06
-6.16922e-07
6.81028e-06
-6.97393e-06
-8.4375e-07
1.21819e-05
-1.11413e-05
-6.29974e-07
1.27387e-05
-1.4555e-05
-1.98862e-07
1.05502e-05
-1.69115e-05
2.80547e-07
6.33319e-06
-1.78528e-05
6.59937e-07
1.33193e-07
-1.68439e-05
7.90953e-07
-7.80872e-06
-1.30105e-05
6.04127e-07
-1.64121e-05
-6.21216e-06
2.40634e-07
-2.1334e-05
1.56086e-08
-1.38704e-05
-2.94933e-06
-9.32547e-13
6.83981e-06
-7.55726e-06
-8.83244e-13
1.22341e-05
-1.19715e-05
-8.33904e-13
1.26823e-05
-1.54483e-05
-6.84263e-13
1.02888e-05
-1.76981e-05
-4.83397e-13
5.8494e-06
-1.84473e-05
-3.34634e-13
-5.14927e-07
-1.72499e-05
-2.44827e-13
-8.58172e-06
-1.32757e-05
-1.76638e-13
-1.72793e-05
-6.34021e-06
-1.86233e-13
-2.21975e-05
-1.7999e-13
-1.43425e-05
-2.94933e-06
6.16921e-07
6.83981e-06
-7.55726e-06
8.43748e-07
1.22341e-05
-1.19715e-05
6.29973e-07
1.26823e-05
-1.54483e-05
1.9886e-07
1.02888e-05
-1.76981e-05
-2.80548e-07
5.8494e-06
-1.84473e-05
-6.59938e-07
-5.14927e-07
-1.72499e-05
-7.90953e-07
-8.58172e-06
-1.32757e-05
-6.04128e-07
-1.72793e-05
-6.34021e-06
-2.40635e-07
-2.21975e-05
-1.5609e-08
-1.43425e-05
-2.71266e-06
1.0442e-06
6.81028e-06
-6.97393e-06
1.41115e-06
1.21819e-05
-1.11413e-05
1.07614e-06
1.27387e-05
-1.4555e-05
3.95108e-07
1.05502e-05
-1.69115e-05
-3.6916e-07
6.33319e-06
-1.78528e-05
-9.82117e-07
1.33193e-07
-1.68439e-05
-1.22326e-06
-7.80872e-06
-1.30105e-05
-9.4301e-07
-1.64121e-05
-6.21216e-06
-3.59831e-07
-2.1334e-05
-1.9573e-08
-1.38704e-05
-2.22024e-06
1.09329e-06
6.6302e-06
-5.74493e-06
1.43741e-06
1.17957e-05
-9.32615e-06
1.12661e-06
1.25004e-05
-1.24776e-05
4.94089e-07
1.07366e-05
-1.49051e-05
-2.21981e-07
7.08997e-06
-1.61742e-05
-8.03748e-07
1.50757e-06
-1.55833e-05
-1.04349e-06
-5.93648e-06
-1.21826e-05
-7.85568e-07
-1.41298e-05
-5.84158e-06
-2.45735e-07
-1.90268e-05
-1.29077e-08
-1.26211e-05
-1.46783e-06
6.58007e-07
5.91321e-06
-3.83512e-06
8.15056e-07
1.02569e-05
-6.36522e-06
6.56609e-07
1.09704e-05
-8.82061e-06
3.42345e-07
9.83579e-06
-1.09945e-05
-2.07385e-08
7.28094e-06
-1.24692e-05
-2.99792e-07
3.12288e-06
-1.24643e-05
-4.01174e-07
-2.76199e-06
-9.99265e-06
-2.47241e-07
-9.5781e-06
-4.85061e-06
-4.52186e-09
-1.41061e-05
-9.96578e-09
-9.90459e-06
-5.05332e-07
3.5614e-06
-1.34591e-06
5.65663e-06
-2.30067e-06
6.00085e-06
-3.37654e-06
5.63252e-06
-4.54259e-06
4.72982e-06
-5.56446e-06
3.11079e-06
-5.93331e-06
5.27318e-07
-4.96616e-06
-2.82864e-06
-2.46114e-06
-5.60377e-06
-4.66329e-06
-6.95902e-07
-7.30909e-07
4.98821e-06
-1.51202e-06
-8.31542e-07
7.30429e-06
-2.34459e-06
-5.10042e-07
7.34345e-06
-3.39731e-06
5.35321e-08
6.6317e-06
-4.79944e-06
6.99411e-07
5.43254e-06
-6.41743e-06
1.26723e-06
3.46155e-06
-7.61884e-06
1.52914e-06
1.99591e-07
-7.24317e-06
1.22908e-06
-4.4334e-06
-4.28699e-06
4.93928e-07
-9.05388e-06
-6.44759e-08
-8.8858e-06
-1.74799e-06
-1.18273e-06
8.11302e-06
-4.13184e-06
-1.43778e-06
1.32469e-05
-6.50332e-06
-8.4036e-07
1.36722e-05
-8.88098e-06
2.19091e-07
1.20479e-05
-1.13033e-05
1.41499e-06
8.98767e-06
-1.34842e-05
2.4094e-06
4.1616e-06
-1.45684e-05
2.80256e-06
-2.95123e-06
-1.30041e-05
2.23962e-06
-1.21529e-05
-7.42073e-06
9.49576e-07
-2.01451e-05
-5.95223e-08
-1.73303e-05
-2.50415e-06
-1.10823e-06
9.05985e-06
-6.03899e-06
-1.38631e-06
1.52791e-05
-9.39613e-06
-7.69193e-07
1.57863e-05
-1.23377e-05
3.19544e-07
1.35777e-05
-1.48257e-05
1.51445e-06
9.47858e-06
-1.66261e-05
2.44954e-06
3.26785e-06
-1.70735e-05
2.72844e-06
-5.41495e-06
-1.47794e-05
2.09917e-06
-1.62835e-05
-8.36075e-06
8.69413e-07
-2.53653e-05
-3.09444e-08
-2.10104e-05
-2.97506e-06
-6.46596e-07
9.32371e-06
-7.20759e-06
-8.18327e-07
1.58464e-05
-1.10626e-05
-4.35641e-07
1.62602e-05
-1.41255e-05
2.33593e-07
1.3699e-05
-1.63694e-05
9.50047e-07
9.14147e-06
-1.77186e-05
1.47883e-06
2.45316e-06
-1.77408e-05
1.59949e-06
-6.65755e-06
-1.52106e-05
1.19032e-06
-1.80336e-05
-8.65195e-06
4.7868e-07
-2.75019e-05
-9.69027e-09
-2.25436e-05
-3.19268e-06
-6.83896e-13
9.3859e-06
-7.7389e-06
-6.87e-13
1.5962e-05
-1.17819e-05
-6.59001e-13
1.62897e-05
-1.48252e-05
-5.33207e-13
1.35657e-05
-1.68818e-05
-4.03613e-13
8.85598e-06
-1.79806e-05
-2.67202e-13
2.06271e-06
-1.78483e-05
-1.70118e-13
-7.11449e-06
-1.52998e-05
-1.21959e-13
-1.86375e-05
-8.75772e-06
-1.21108e-13
-2.82609e-05
-1.04372e-13
-2.31099e-05
-3.19268e-06
6.46595e-07
9.3859e-06
-7.7389e-06
8.18325e-07
1.5962e-05
-1.17819e-05
4.3564e-07
1.62897e-05
-1.48252e-05
-2.33594e-07
1.35657e-05
-1.68818e-05
-9.50047e-07
8.85598e-06
-1.79806e-05
-1.47883e-06
2.06271e-06
-1.78483e-05
-1.59949e-06
-7.11449e-06
-1.52998e-05
-1.19032e-06
-1.86375e-05
-8.75772e-06
-4.7868e-07
-2.82609e-05
9.69001e-09
-2.31099e-05
-2.97506e-06
1.10823e-06
9.32371e-06
-7.20759e-06
1.38631e-06
1.58464e-05
-1.10626e-05
7.69192e-07
1.62602e-05
-1.41255e-05
-3.19545e-07
1.3699e-05
-1.63694e-05
-1.51445e-06
9.14147e-06
-1.77186e-05
-2.44954e-06
2.45316e-06
-1.77408e-05
-2.72844e-06
-6.65755e-06
-1.52106e-05
-2.09917e-06
-1.80336e-05
-8.65195e-06
-8.69414e-07
-2.75019e-05
3.09442e-08
-2.25436e-05
-2.50415e-06
1.18273e-06
9.05985e-06
-6.03899e-06
1.43778e-06
1.52791e-05
-9.39613e-06
8.4036e-07
1.57863e-05
-1.23377e-05
-2.19091e-07
1.35777e-05
-1.48257e-05
-1.41499e-06
9.47858e-06
-1.66261e-05
-2.4094e-06
3.26785e-06
-1.70735e-05
-2.80256e-06
-5.41495e-06
-1.47794e-05
-2.23962e-06
-1.62835e-05
-8.36075e-06
-9.49576e-07
-2.53653e-05
5.95221e-08
-2.10104e-05
-1.74799e-06
7.30909e-07
8.11303e-06
-4.13184e-06
8.31541e-07
1.32469e-05
-6.50332e-06
5.10042e-07
1.36722e-05
-8.88098e-06
-5.35323e-08
1.20479e-05
-1.13033e-05
-6.99412e-07
8.98767e-06
-1.34842e-05
-1.26723e-06
4.1616e-06
-1.45684e-05
-1.52914e-06
-2.95123e-06
-1.30041e-05
-1.22908e-06
-1.21529e-05
-7.42073e-06
-4.93928e-07
-2.01451e-05
6.44757e-08
-1.73303e-05
-6.95902e-07
4.98821e-06
-1.51202e-06
7.3043e-06
-2.34458e-06
7.34345e-06
-3.39731e-06
6.6317e-06
-4.79944e-06
5.43254e-06
-6.41743e-06
3.46155e-06
-7.61884e-06
1.99591e-07
-7.24317e-06
-4.4334e-06
-4.28699e-06
-9.05388e-06
-8.8858e-06
-1.22758e-06
-8.29607e-07
7.04539e-06
-1.83392e-06
-8.40379e-07
8.75102e-06
-2.18804e-06
-3.16044e-07
8.01362e-06
-2.82584e-06
5.28305e-07
6.7412e-06
-4.13165e-06
1.50975e-06
5.2286e-06
-6.17803e-06
2.44291e-06
3.06502e-06
-8.42369e-06
2.97729e-06
-5.32052e-07
-9.23021e-06
2.58834e-06
-6.21521e-06
-6.50686e-06
1.20192e-06
-1.29791e-05
-2.95158e-07
-1.50975e-05
-2.37654e-06
-1.27188e-06
1.09318e-05
-4.38151e-06
-1.40931e-06
1.58208e-05
-5.89258e-06
-5.03561e-07
1.53708e-05
-7.36218e-06
9.66773e-07
1.3079e-05
-9.19492e-06
2.61312e-06
9.71703e-06
-1.14397e-05
4.0195e-06
4.8298e-06
-1.35032e-05
4.61637e-06
-2.52682e-06
-1.36495e-05
3.75996e-06
-1.31783e-05
-9.28569e-06
1.57397e-06
-2.48809e-05
-4.20162e-07
-2.6491e-05
-3.01949e-06
-1.15343e-06
1.19609e-05
-6.02139e-06
-1.32475e-06
1.81965e-05
-8.28188e-06
-4.36267e-07
1.79795e-05
-1.00011e-05
9.94457e-07
1.52692e-05
-1.15198e-05
2.53086e-06
1.10795e-05
-1.30101e-05
3.72274e-06
5.05488e-06
-1.42188e-05
4.05286e-06
-3.64273e-06
-1.38642e-05
3.08886e-06
-1.59669e-05
-9.4645e-06
1.15817e-06
-2.93492e-05
-3.42066e-07
-3.0553e-05
-3.38456e-06
-6.60175e-07
1.2215e-05
-6.9468e-06
-7.69531e-07
1.88534e-05
-9.53987e-06
-2.35521e-07
1.86526e-05
-1.11992e-05
6.16549e-07
1.57363e-05
-1.22884e-05
1.50187e-06
1.12597e-05
-1.31732e-05
2.14064e-06
4.91998e-06
-1.39165e-05
2.24555e-06
-4.10694e-06
-1.35229e-05
1.63165e-06
-1.69699e-05
-9.42099e-06
5.66264e-07
-3.10119e-05
-1.74865e-07
-3.21318e-05
-3.54273e-06
-4.57637e-13
1.22684e-05
-7.34028e-06
-4.85272e-13
1.89901e-05
-1.00369e-05
-4.7538e-13
1.87507e-05
-1.15984e-05
-3.96938e-13
1.57437e-05
-1.2434e-05
-3.0229e-13
1.11935e-05
-1.30427e-05
-1.77274e-13
4.81208e-06
-1.36514e-05
-9.98242e-14
-4.2603e-06
-1.33505e-05
-5.52354e-14
-1.73067e-05
-9.43281e-06
-4.93513e-14
-3.16124e-05
-5.39661e-14
-3.27176e-05
-3.54273e-06
6.60175e-07
1.22685e-05
-7.34028e-06
7.6953e-07
1.89901e-05
-1.00369e-05
2.3552e-07
1.87507e-05
-1.15984e-05
-6.1655e-07
1.57437e-05
-1.2434e-05
-1.50187e-06
1.11935e-05
-1.30427e-05
-2.14064e-06
4.81208e-06
-1.36514e-05
-2.24555e-06
-4.2603e-06
-1.33505e-05
-1.63165e-06
-1.73067e-05
-9.43281e-06
-5.66264e-07
-3.16124e-05
1.74864e-07
-3.27176e-05
-3.38456e-06
1.15343e-06
1.2215e-05
-6.9468e-06
1.32475e-06
1.88534e-05
-9.53987e-06
4.36267e-07
1.86526e-05
-1.11992e-05
-9.94458e-07
1.57363e-05
-1.22884e-05
-2.53086e-06
1.12597e-05
-1.31732e-05
-3.72274e-06
4.91998e-06
-1.39165e-05
-4.05286e-06
-4.10694e-06
-1.35229e-05
-3.08886e-06
-1.69699e-05
-9.42099e-06
-1.15817e-06
-3.10119e-05
3.42066e-07
-3.21318e-05
-3.01949e-06
1.27188e-06
1.19609e-05
-6.02139e-06
1.40931e-06
1.81965e-05
-8.28188e-06
5.0356e-07
1.79795e-05
-1.00011e-05
-9.66774e-07
1.52692e-05
-1.15198e-05
-2.61312e-06
1.10795e-05
-1.30101e-05
-4.0195e-06
5.05488e-06
-1.42188e-05
-4.61637e-06
-3.64273e-06
-1.38642e-05
-3.75996e-06
-1.59669e-05
-9.4645e-06
-1.57397e-06
-2.93492e-05
4.20161e-07
-3.0553e-05
-2.37654e-06
8.29606e-07
1.09318e-05
-4.38151e-06
8.40378e-07
1.58208e-05
-5.89258e-06
3.16044e-07
1.53708e-05
-7.36218e-06
-5.28305e-07
1.3079e-05
-9.19492e-06
-1.50975e-06
9.71703e-06
-1.14397e-05
-2.44291e-06
4.8298e-06
-1.35032e-05
-2.97729e-06
-2.52682e-06
-1.36495e-05
-2.58834e-06
-1.31783e-05
-9.28569e-06
-1.20192e-06
-2.48809e-05
2.95157e-07
-2.6491e-05
-1.22758e-06
7.04539e-06
-1.83392e-06
8.75102e-06
-2.18804e-06
8.01362e-06
-2.82584e-06
6.7412e-06
-4.13165e-06
5.2286e-06
-6.17803e-06
3.06502e-06
-8.42369e-06
-5.32052e-07
-9.23021e-06
-6.21521e-06
-6.50686e-06
-1.29791e-05
-1.50975e-05
-2.47338e-06
-1.08413e-06
1.06029e-05
-2.2326e-06
-1.0758e-06
9.58604e-06
-1.28512e-06
-3.89491e-07
7.45563e-06
-7.31748e-07
6.75545e-07
5.51228e-06
-1.21844e-06
1.90691e-06
3.80839e-06
-3.07619e-06
3.14205e-06
1.78072e-06
-6.14516e-06
4.02809e-06
-1.49118e-06
-8.68059e-06
3.68567e-06
-7.36545e-06
-7.66983e-06
1.62454e-06
-1.56144e-05
-1.01173e-06
-2.17556e-05
-4.02055e-06
-1.52976e-06
1.5398e-05
-4.672e-06
-1.65863e-06
1.70551e-05
-3.87481e-06
-5.90843e-07
1.4775e-05
-2.9139e-06
1.06671e-06
1.1727e-05
-2.64856e-06
2.92453e-06
8.43405e-06
-3.56684e-06
4.58953e-06
4.3006e-06
-5.72943e-06
5.49987e-06
-1.836e-06
-8.04432e-06
4.60552e-06
-1.17832e-05
-7.44081e-06
1.62887e-06
-2.54888e-05
-1.37814e-06
-3.35653e-05
-4.63172e-06
-1.30535e-06
1.63682e-05
-5.98841e-06
-1.47142e-06
1.93659e-05
-5.52609e-06
-4.86508e-07
1.74129e-05
-4.35049e-06
1.02244e-06
1.41379e-05
-3.28555e-06
2.63227e-06
1.03069e-05
-2.97313e-06
3.94454e-06
5.38745e-06
-3.86445e-06
4.46722e-06
-1.71876e-06
-5.76449e-06
3.46432e-06
-1.29257e-05
-6.00121e-06
1.02754e-06
-2.85111e-05
-1.01659e-06
-3.69158e-05
-4.89458e-06
-7.20323e-07
1.65246e-05
-6.61208e-06
-8.25583e-07
1.99251e-05
-6.2894e-06
-2.5352e-07
1.80969e-05
-4.92008e-06
6.11358e-07
1.4778e-05
-3.34666e-06
1.50187e-06
1.08166e-05
-2.36464e-06
2.1785e-06
5.704e-06
-2.70958e-06
2.37654e-06
-1.67133e-06
-4.64988e-06
1.75211e-06
-1.33174e-05
-5.49492e-06
4.67648e-07
-2.9607e-05
-4.86472e-07
-3.81569e-05
-4.98771e-06
-3.03361e-13
1.65358e-05
-6.83727e-06
-3.284e-13
2.0014e-05
-6.53954e-06
-3.21711e-13
1.81995e-05
-5.0496e-06
-2.96623e-13
1.48651e-05
-3.24326e-06
-2.38619e-13
1.0889e-05
-2.01412e-06
-1.18826e-13
5.76144e-06
-2.2278e-06
-1.83177e-14
-1.67008e-06
-4.30453e-06
1.48913e-14
-1.34778e-05
-5.41933e-06
-5.38843e-15
-3.00299e-05
-5.28352e-14
-3.86234e-05
-4.98771e-06
7.20322e-07
1.65358e-05
-6.83727e-06
8.25582e-07
2.0014e-05
-6.53954e-06
2.5352e-07
1.81995e-05
-5.0496e-06
-6.11358e-07
1.48651e-05
-3.24326e-06
-1.50188e-06
1.0889e-05
-2.01412e-06
-2.1785e-06
5.76144e-06
-2.2278e-06
-2.37654e-06
-1.67008e-06
-4.30453e-06
-1.75211e-06
-1.34778e-05
-5.41933e-06
-4.67648e-07
-3.00299e-05
4.86471e-07
-3.86234e-05
-4.89458e-06
1.30535e-06
1.65246e-05
-6.61208e-06
1.47142e-06
1.99251e-05
-6.2894e-06
4.86507e-07
1.80969e-05
-4.92008e-06
-1.02244e-06
1.4778e-05
-3.34666e-06
-2.63227e-06
1.08166e-05
-2.36464e-06
-3.94454e-06
5.704e-06
-2.70958e-06
-4.46722e-06
-1.67133e-06
-4.64988e-06
-3.46432e-06
-1.33174e-05
-5.49492e-06
-1.02754e-06
-2.9607e-05
1.01659e-06
-3.81569e-05
-4.63172e-06
1.52976e-06
1.63682e-05
-5.98841e-06
1.65863e-06
1.93659e-05
-5.52609e-06
5.90843e-07
1.74129e-05
-4.35049e-06
-1.06671e-06
1.41379e-05
-3.28555e-06
-2.92453e-06
1.03069e-05
-2.97313e-06
-4.58953e-06
5.38745e-06
-3.86445e-06
-5.49987e-06
-1.71876e-06
-5.76449e-06
-4.60552e-06
-1.29257e-05
-6.00121e-06
-1.62887e-06
-2.85111e-05
1.37814e-06
-3.69158e-05
-4.02055e-06
1.08413e-06
1.5398e-05
-4.672e-06
1.0758e-06
1.70551e-05
-3.87481e-06
3.89491e-07
1.4775e-05
-2.9139e-06
-6.75545e-07
1.1727e-05
-2.64856e-06
-1.90691e-06
8.43405e-06
-3.56684e-06
-3.14205e-06
4.3006e-06
-5.72943e-06
-4.02809e-06
-1.836e-06
-8.04432e-06
-3.68567e-06
-1.17832e-05
-7.44081e-06
-1.62454e-06
-2.54888e-05
1.01173e-06
-3.35653e-05
-2.47338e-06
1.06029e-05
-2.2326e-06
9.58604e-06
-1.28512e-06
7.45563e-06
-7.31748e-07
5.51228e-06
-1.21844e-06
3.80839e-06
-3.07619e-06
1.78072e-06
-6.14516e-06
-1.49118e-06
-8.68059e-06
-7.36545e-06
-7.66983e-06
-1.56144e-05
-2.17556e-05
-2.67028e-06
-1.85789e-06
1.51311e-05
5.15147e-07
-1.98737e-06
8.38798e-06
4.55274e-06
-1.19812e-06
4.61616e-06
7.41502e-06
-1.43452e-07
2.79346e-06
8.60217e-06
1.09728e-06
1.52395e-06
7.67327e-06
2.38264e-06
3.26992e-07
4.3615e-06
3.55112e-06
-1.73052e-06
-6.13489e-07
3.45199e-06
-5.84246e-06
-3.46946e-06
9.05065e-07
-1.36635e-05
-2.72035e-06
-2.25047e-05
-4.76887e-06
-2.23224e-06
2.05412e-05
-7.7074e-07
-2.67609e-06
1.37457e-05
5.15247e-06
-1.7666e-06
9.42025e-06
1.03007e-05
-2.94276e-07
6.72958e-06
1.39772e-05
1.37395e-06
4.48086e-06
1.54971e-05
3.00965e-06
2.15369e-06
1.40515e-05
4.2728e-06
-1.11211e-06
9.32421e-06
3.84022e-06
-7.44412e-06
3.09572e-06
6.95382e-07
-1.90506e-05
-2.76173e-06
-3.04282e-05
-5.53158e-06
-1.70921e-06
2.13767e-05
-1.72845e-06
-2.16918e-06
1.50559e-05
4.35172e-06
-1.43995e-06
1.10061e-05
1.01802e-05
-2.35581e-07
8.25075e-06
1.49942e-05
1.10957e-06
5.75722e-06
1.79956e-05
2.35438e-06
3.04128e-06
1.79357e-05
3.19819e-06
-5.84202e-07
1.37196e-05
2.7497e-06
-7.61905e-06
5.71839e-06
4.34366e-07
-2.02489e-05
-1.72984e-06
-3.22293e-05
-5.72643e-06
-8.8785e-07
2.14296e-05
-2.06349e-06
-1.15361e-06
1.52466e-05
4.01749e-06
-7.54373e-07
1.13303e-05
1.00568e-05
-1.07301e-07
8.61049e-06
1.52857e-05
6.04576e-07
6.0927e-06