/*--------------------------------*- C++ -*----------------------------------*\
  =========                 |
  \\      /  F ield         | OpenFOAM: The Open Source CFD Toolbox
   \\    /   O peration     | Website:  https://openfoam.org
    \\  /    A nd           | Version:  9
     \\/     M anipulation  |
\*---------------------------------------------------------------------------*/
FoamFile
{
    format      ascii;
    class       volScalarField;
    location    "0.56";
    object      p;
}
// * * * * * * * * * * * * * * * * * * * * * * * * * * * * * * * * * * * * * //

dimensions      [0 2 -2 0 0 0 0];

internalField   nonuniform List<scalar> 
1000
(
-7.66634e-07
-0.000462342
-0.000102446
0.00101411
0.00294172
0.00554572
0.00837365
0.0106798
0.0117677
0.0109341
0.000172203
-0.00068393
-0.000427193
0.000730922
0.00283007
0.00571956
0.00887721
0.0113981
0.0124339
0.0110647
0.000898737
-0.000215916
4.61503e-06
0.00125714
0.00359087
0.00683311
0.0103603
0.0130315
0.0138398
0.0117555
0.00167324
0.000390499
0.000598481
0.0019444
0.00449067
0.00805263
0.0118412
0.0145783
0.0151495
0.0125
0.00215602
0.000795423
0.00100249
0.00240333
0.00506622
0.00879267
0.0127244
0.0154804
0.0159096
0.0129623
0.00215607
0.000795473
0.00100252
0.00240335
0.00506624
0.00879268
0.0127244
0.0154804
0.0159097
0.0129623
0.0016734
0.000390651
0.000598593
0.00194448
0.00449074
0.00805268
0.0118412
0.0145783
0.0151496
0.0125
0.000899066
-0.000215624
4.82048e-06
0.00125728
0.00359099
0.0068332
0.0103604
0.0130316
0.0138399
0.0117556
0.000172859
-0.000683427
-0.000426873
0.00073113
0.00283023
0.00571967
0.00887729
0.0113982
0.0124339
0.0110648
5.36255e-07
-0.000461595
-0.000102047
0.00101436
0.0029419
0.00554584
0.00837374
0.0106799
0.0117678
0.0109342
0.000374942
-4.46511e-05
0.000337129
0.00133773
0.00303451
0.00536494
0.00796727
0.0101897
0.0112975
0.0101925
0.000904551
2.30358e-05
0.00032572
0.00131408
0.00304039
0.00545715
0.00819848
0.0105423
0.0116114
0.00985741
0.00204514
0.000784061
0.00102621
0.00201535
0.00380914
0.00636263
0.0093374
0.0117612
0.0126355
0.0101496
0.00310817
0.00156613
0.00175579
0.00274912
0.00461764
0.00733824
0.0104746
0.0129321
0.0136115
0.0105924
0.00373447
0.00204595
0.00220659
0.00320268
0.00511383
0.00793212
0.0111536
0.0136174
0.0141818
0.0108998
0.00373452
0.002046
0.00220663
0.00320271
0.00511386
0.00793214
0.0111537
0.0136174
0.0141819
0.0108998
0.00310832
0.00156627
0.0017559
0.0027492
0.00461771
0.0073383
0.0104747
0.0129322
0.0136115
0.0105924
0.00204542
0.00078431
0.0010264
0.00201549
0.00380926
0.00636272
0.00933746
0.0117612
0.0126356
0.0101497
0.000905033
2.34284e-05
0.000325993
0.00131427
0.00304054
0.00545726
0.00819856
0.0105423
0.0116115
0.00985746
0.000375666
-4.41289e-05
0.000337459
0.00133796
0.00303467
0.00536506
0.00796736
0.0101898
0.0112976
0.0101925
-0.000945579
-0.00149887
-0.00121961
-0.000394787
0.00114823
0.00351249
0.0064772
0.00937406
0.0111313
0.00984944
-0.000103708
-0.0012796
-0.00108368
-0.000268499
0.00130592
0.00378158
0.00693558
0.0100014
0.01169
0.00927826
0.00153348
-0.000190513
-0.000107029
0.000629348
0.00218897
0.00477901
0.00813269
0.0113226
0.012816
0.00937528
0.00299655
0.000867163
0.000844302
0.00150506
0.00305561
0.00573868
0.00923576
0.0124763
0.0137736
0.00964467
0.00383815
0.00149716
0.00141255
0.00202939
0.00357666
0.00630929
0.00987164
0.0131193
0.0143014
0.00985327
0.00383818
0.0014972
0.00141257
0.00202941
0.00357667
0.0063093
0.00987165
0.0131194
0.0143014
0.00985327
0.00299666
0.000867283
0.000844392
0.00150513
0.00305566
0.00573873
0.00923578
0.0124763
0.0137736
0.00964468
0.00153369
-0.000190312
-0.000106876
0.000629467
0.00218907
0.00477909
0.00813273
0.0113226
0.0128161
0.0093753
-0.000103385
-0.00127931
-0.00108346
-0.000268341
0.00130604
0.00378167
0.00693564
0.0100014
0.01169
0.0092783
-0.000945165
-0.00149852
-0.00121935
-0.000394594
0.00114837
0.0035126
0.00647727
0.00937412
0.0111313
0.0098495
-0.00434518
-0.00502375
-0.00489715
-0.00432347
-0.0029639
-0.000415288
0.00338608
0.00783441
0.0112599
0.0103751
-0.00318225
-0.00463739
-0.00459857
-0.00401871
-0.00259656
0.000118792
0.0042125
0.00899275
0.012355
0.00975686
-0.00102478
-0.00320127
-0.00337129
-0.00301262
-0.00176332
0.00096445
0.00521541
0.0102461
0.0135311
0.00976264
0.000867146
-0.00184215
-0.00221227
-0.00206937
-0.000989683
0.00168051
0.00604032
0.011192
0.0143699
0.00990357
0.00194194
-0.00104463
-0.00153135
-0.00151347
-0.000527608
0.00211024
0.00649613
0.0116775
0.0147849
0.0100231
0.00194196
-0.0010446
-0.00153134
-0.00151346
-0.000527597
0.00211025
0.00649613
0.0116775
0.0147849
0.0100231
0.000867228
-0.00184206
-0.00221221
-0.00206931
-0.000989637
0.00168054
0.00604035
0.011192
0.0143699
0.00990358
-0.00102463
-0.00320112
-0.00337117
-0.00301252
-0.00176324
0.000964515
0.00521546
0.0102461
0.0135311
0.00976266
-0.00318204
-0.00463719
-0.00459842
-0.0040186
-0.00259647
0.000118866
0.00421256
0.0089928
0.012355
0.00975689
-0.00434491
-0.00502352
-0.00489697
-0.00432332
-0.00296379
-0.000415196
0.00338615
0.00783446
0.01126
0.0103752
-0.0105133
-0.0111533
-0.0111151
-0.0108254
-0.0097304
-0.00694209
-0.00181831
0.00535746
0.0121141
0.0133017
-0.00905814
-0.0106131
-0.0106865
-0.0104106
-0.00926472
-0.0063539
-0.000923254
0.00681028
0.0137304
0.0130675
-0.00646598
-0.0089103
-0.00936243
-0.0095721
-0.00893519
-0.00634117
-0.00092176
0.00723984
0.0144632
0.0130959
-0.00423132
-0.00732676
-0.00812915
-0.00878458
-0.00858971
-0.00627572
-0.00094022
0.00743464
0.0148299
0.0131642
-0.00297675
-0.00640835
-0.00741038
-0.00831396
-0.00835599
-0.00620509
-0.00093239
0.00750455
0.0149593
0.0132051
-0.00297673
-0.00640833
-0.00741037
-0.00831395
-0.00835597
-0.00620508
-0.000932381
0.00750455
0.0149593
0.0132051
-0.00423126
-0.0073267
-0.0081291
-0.00878453
-0.00858967
-0.00627568
-0.000940192
0.00743466
0.0148299
0.0131642
-0.00646587
-0.0089102
-0.00936235
-0.00957202
-0.00893512
-0.00634111
-0.000921715
0.00723987
0.0144632
0.0130959
-0.009058
-0.010613
-0.0106864
-0.0104106
-0.00926465
-0.00635384
-0.000923201
0.00681032
0.0137304
0.0130675
-0.0105131
-0.0111532
-0.011115
-0.0108253
-0.00973032
-0.00694202
-0.00181826
0.00535749
0.0121142
0.0133018
-0.0201177
-0.0201941
-0.0198987
-0.0197657
-0.0189401
-0.0159433
-0.0091088
0.0021332
0.0148769
0.0214992
-0.0183895
-0.0195495
-0.0194559
-0.0194637
-0.0188449
-0.0161165
-0.00943788
0.00233615
0.0157292
0.0218624
-0.0154779
-0.0176892
-0.0182306
-0.019138
-0.0195557
-0.0177721
-0.0115935
0.000695244
0.0151543
0.0219022
-0.0130265
-0.0159841
-0.0170721
-0.0187309
-0.0199706
-0.0188978
-0.0130912
-0.00055232
0.0145368
0.0218398
-0.0116717
-0.0150078
-0.0163959
-0.0184495
-0.0200988
-0.0193609
-0.0137617
-0.00115459
0.0141935
0.0217757
-0.0116717
-0.0150078
-0.0163959
-0.0184495
-0.0200988
-0.0193609
-0.0137617
-0.00115458
0.0141935
0.0217757
-0.0130264
-0.0159841
-0.017072
-0.0187308
-0.0199706
-0.0188978
-0.0130912
-0.000552306
0.0145368
0.0218399
-0.0154779
-0.0176891
-0.0182306
-0.0191379
-0.0195556
-0.017772
-0.0115934
0.000695264
0.0151543
0.0219023
-0.0183894
-0.0195495
-0.0194559
-0.0194637
-0.0188449
-0.0161164
-0.00943784
0.00233618
0.0157292
0.0218624
-0.0201176
-0.020194
-0.0198986
-0.0197656
-0.01894
-0.0159432
-0.00910876
0.00213323
0.0148769
0.0214992
-0.0342933
-0.0320922
-0.0305614
-0.0300518
-0.0293528
-0.0262357
-0.0177471
-0.00125566
0.0205786
0.0392501
-0.0320977
-0.0312952
-0.0302133
-0.0302139
-0.030273
-0.0282934
-0.0210538
-0.00471912
0.0182884
0.0393767
-0.0288467
-0.0292211
-0.0290909
-0.0304974
-0.032283
-0.0321248
-0.0262188
-0.00957417
0.0152622
0.0392277
-0.0262312
-0.0273921
-0.0279966
-0.0304587
-0.0334562
-0.0344679
-0.029346
-0.0125111
0.0133734
0.0390943
-0.0248237
-0.0263715
-0.0273616
-0.0303431
-0.0338995
-0.0354234
-0.030645
-0.0137557
0.012553
0.0390137
-0.0248237
-0.0263715
-0.0273616
-0.0303431
-0.0338995
-0.0354234
-0.030645
-0.0137557
0.012553
0.0390137
-0.0262311
-0.0273921
-0.0279966
-0.0304586
-0.0334562
-0.0344679
-0.029346
-0.0125111
0.0133734
0.0390943
-0.0288466
-0.029221
-0.0290908
-0.0304974
-0.0322829
-0.0321247
-0.0262188
-0.00957415
0.0152622
0.0392278
-0.0320976
-0.0312952
-0.0302132
-0.0302138
-0.030273
-0.0282934
-0.0210537
-0.0047191
0.0182884
0.0393767
-0.0342932
-0.0320921
-0.0305613
-0.0300517
-0.0293527
-0.0262356
-0.0177471
-0.00125563
0.0205786
0.0392501
-0.056918
-0.0464649
-0.0416281
-0.0394706
-0.0383168
-0.0348617
-0.025106
-0.00270017
0.0305877
0.0734212
-0.0535856
-0.0449978
-0.0410458
-0.0401667
-0.0405879
-0.0393662
-0.0325375
-0.0116755
0.0228493
0.0738648
-0.049404
-0.0420802
-0.0393129
-0.0404075
-0.043217
-0.0444608
-0.039729
-0.0187834
0.0181124
0.0752623
-0.046329
-0.0397614
-0.0378103
-0.0401883
-0.0445098
-0.0471613
-0.0434922
-0.0222335
0.0161047
0.0765815
-0.0447634
-0.0385503
-0.0370097
-0.0399805
-0.0449493
-0.0481643
-0.0449268
-0.0235088
0.0154553
0.0772168
-0.0447634
-0.0385503
-0.0370097
-0.0399805
-0.0449493
-0.0481643
-0.0449268
-0.0235087
0.0154554
0.0772168
-0.046329
-0.0397614
-0.0378102
-0.0401882
-0.0445098
-0.0471613
-0.0434922
-0.0222335
0.0161047
0.0765816
-0.0494039
-0.0420801
-0.0393129
-0.0404075
-0.043217
-0.0444608
-0.039729
-0.0187834
0.0181124
0.0752623
-0.0535855
-0.0449977
-0.0410458
-0.0401667
-0.0405879
-0.0393662
-0.0325375
-0.0116755
0.0228493
0.0738649
-0.0569179
-0.0464648
-0.041628
-0.0394705
-0.0383167
-0.0348616
-0.0251059
-0.00270014
0.0305877
0.0734212
-0.0885459
-0.0608267
-0.0515196
-0.0457945
-0.043004
-0.0384713
-0.0259423
0.00493104
0.0517518
0.150907
-0.0808566
-0.0569421
-0.0501322
-0.0468179
-0.0463792
-0.0445854
-0.0357989
-0.00588598
0.0453344
0.162495
-0.0744597
-0.0521744
-0.0469244
-0.0461149
-0.0486047
-0.0494904
-0.0428035
-0.0112761
0.0462822
0.171476
-0.0704856
-0.0489125
-0.0445436
-0.0452559
-0.0494702
-0.0518535
-0.0460011
-0.0131706
0.0475323
0.177125
-0.0686549
-0.047348
-0.0433895
-0.0447803
-0.0497228
-0.0527104
-0.0471475
-0.0137857
0.048219
0.179572
-0.0686549
-0.047348
-0.0433895
-0.0447803
-0.0497228
-0.0527104
-0.0471475
-0.0137857
0.048219
0.179572
-0.0704855
-0.0489125
-0.0445436
-0.0452559
-0.0494702
-0.0518535
-0.0460011
-0.0131706
0.0475323
0.177125
-0.0744596
-0.0521743
-0.0469243
-0.0461149
-0.0486046
-0.0494904
-0.0428035
-0.0112761
0.0462822
0.171476
-0.0808565
-0.056942
-0.0501322
-0.0468179
-0.0463792
-0.0445854
-0.0357989
-0.00588596
0.0453344
0.162495
-0.0885459
-0.0608267
-0.0515195
-0.0457945
-0.043004
-0.0384713
-0.0259423
0.00493106
0.0517518
0.150907
-0.198901
-0.0736065
-0.0485444
-0.0399722
-0.0356063
-0.0288682
-0.0120532
0.0330158
0.119094
0.32465
-0.186647
-0.0609783
-0.040817
-0.0366228
-0.0358859
-0.0324685
-0.0180778
0.0297874
0.129528
0.359212
-0.177803
-0.0521457
-0.0342361
-0.0330951
-0.0355404
-0.0345189
-0.0211448
0.0297967
0.138765
0.380001
-0.172703
-0.0471417
-0.0302327
-0.0308038
-0.0350989
-0.0354232
-0.0223877
0.0301982
0.143318
0.389973
-0.170463
-0.0449808
-0.028484
-0.0297826
-0.034869
-0.0357749
-0.0228804
0.0303632
0.145042
0.393761
-0.170463
-0.0449808
-0.028484
-0.0297826
-0.034869
-0.0357749
-0.0228804
0.0303632
0.145042
0.393761
-0.172703
-0.0471417
-0.0302327
-0.0308038
-0.0350989
-0.0354232
-0.0223877
0.0301982
0.143318
0.389973
-0.177803
-0.0521457
-0.0342361
-0.033095
-0.0355404
-0.0345189
-0.0211448
0.0297967
0.138765
0.380001
-0.186647
-0.0609783
-0.040817
-0.0366227
-0.0358859
-0.0324685
-0.0180778
0.0297874
0.129528
0.359212
-0.198901
-0.0736065
-0.0485444
-0.0399722
-0.0356062
-0.0288682
-0.0120532
0.0330159
0.119094
0.32465
)
;

boundaryField
{
    top
    {
        type            zeroGradient;
    }
    others
    {
        type            zeroGradient;
    }
}


// ************************************************************************* //
