/*--------------------------------*- C++ -*----------------------------------*\
  =========                 |
  \\      /  F ield         | OpenFOAM: The Open Source CFD Toolbox
   \\    /   O peration     | Website:  https://openfoam.org
    \\  /    A nd           | Version:  9
     \\/     M anipulation  |
\*---------------------------------------------------------------------------*/
FoamFile
{
    format      ascii;
    class       volVectorField;
    location    "0.56";
    object      U;
}
// * * * * * * * * * * * * * * * * * * * * * * * * * * * * * * * * * * * * * //

dimensions      [0 1 -1 0 0 0 0];

internalField   nonuniform List<vector> 
1000
(
(-5.98459e-06 -0.000472701 0.000347828)
(-0.00148613 -0.000422934 0.00106304)
(-0.00465641 -0.000378582 0.00139162)
(-0.00799147 -0.000485752 0.00151799)
(-0.0108204 -0.000782313 0.0014659)
(-0.0122331 -0.00123159 0.00115079)
(-0.0113256 -0.00168154 0.000557759)
(-0.00783162 -0.00185434 -9.53299e-05)
(-0.00264925 -0.00148393 -0.000285301)
(8.65522e-05 -0.000442381 0.000321717)
(-0.000201409 -0.00164928 0.000596685)
(-0.00349992 -0.00199167 0.00224077)
(-0.0100908 -0.0020621 0.002942)
(-0.0168093 -0.00239216 0.00300689)
(-0.022237 -0.00313167 0.0025185)
(-0.0246781 -0.00418421 0.00138078)
(-0.0225434 -0.00515817 -0.00028885)
(-0.0154868 -0.00538141 -0.00178844)
(-0.00545756 -0.00428155 -0.00182073)
(-4.88085e-05 -0.00157834 0.000165984)
(-0.000382349 -0.00244076 0.000313227)
(-0.0049333 -0.00339033 0.0023013)
(-0.0137283 -0.00368467 0.00313741)
(-0.0225219 -0.00413167 0.00307231)
(-0.029413 -0.00497031 0.00218623)
(-0.0322211 -0.00608764 0.00039966)
(-0.0289666 -0.00698259 -0.00203457)
(-0.0193878 -0.00697697 -0.00392908)
(-0.00630592 -0.00553284 -0.00345354)
(0.000280568 -0.00234961 -0.000108082)
(-0.000500321 -0.00205235 -6.17764e-05)
(-0.00586046 -0.00298855 0.00198498)
(-0.0160621 -0.00329366 0.00284542)
(-0.0261472 -0.00365469 0.00266981)
(-0.0338931 -0.00427517 0.00150775)
(-0.0367555 -0.00506532 -0.0007066)
(-0.0325578 -0.00562173 -0.00359191)
(-0.0212516 -0.00549864 -0.00561828)
(-0.00628921 -0.00435798 -0.00463292)
(0.000724276 -0.00196327 -0.000294209)
(-0.000560086 -0.000789445 -0.00029261)
(-0.00632067 -0.00117043 0.00174178)
(-0.017212 -0.00129634 0.00259899)
(-0.0279191 -0.00143144 0.00236366)
(-0.0360516 -0.00165308 0.00106182)
(-0.0388898 -0.00192666 -0.0013655)
(-0.034168 -0.00211251 -0.00444319)
(-0.0219758 -0.002048 -0.00649005)
(-0.00612261 -0.00162423 -0.00521009)
(0.00100407 -0.000750744 -0.000377862)
(-0.000560087 0.000789468 -0.00029261)
(-0.00632067 0.00117045 0.00174178)
(-0.017212 0.00129635 0.00259899)
(-0.0279191 0.00143145 0.00236366)
(-0.0360516 0.00165309 0.00106182)
(-0.0388898 0.00192666 -0.0013655)
(-0.034168 0.00211251 -0.00444319)
(-0.0219758 0.00204801 -0.00649005)
(-0.00612261 0.00162423 -0.00521009)
(0.00100407 0.000750746 -0.000377862)
(-0.000500322 0.00205238 -6.17761e-05)
(-0.00586047 0.00298857 0.00198498)
(-0.0160621 0.00329368 0.00284542)
(-0.0261473 0.0036547 0.00266981)
(-0.0338931 0.00427518 0.00150775)
(-0.0367555 0.00506533 -0.0007066)
(-0.0325578 0.00562174 -0.00359191)
(-0.0212516 0.00549864 -0.00561828)
(-0.00628921 0.00435798 -0.00463292)
(0.000724276 0.00196327 -0.000294208)
(-0.000382351 0.0024408 0.000313227)
(-0.0049333 0.00339035 0.00230131)
(-0.0137283 0.00368468 0.00313741)
(-0.0225219 0.00413167 0.00307231)
(-0.029413 0.00497031 0.00218623)
(-0.0322211 0.00608764 0.000399659)
(-0.0289666 0.00698259 -0.00203457)
(-0.0193878 0.00697697 -0.00392908)
(-0.00630593 0.00553284 -0.00345354)
(0.000280567 0.00234961 -0.00010808)
(-0.000201414 0.00164933 0.000596682)
(-0.00349993 0.00199169 0.00224078)
(-0.0100908 0.00206211 0.002942)
(-0.0168093 0.00239217 0.00300689)
(-0.022237 0.00313168 0.0025185)
(-0.0246781 0.00418421 0.00138077)
(-0.0225434 0.00515818 -0.00028885)
(-0.0154868 0.00538141 -0.00178844)
(-0.00545756 0.00428155 -0.00182073)
(-4.88092e-05 0.00157834 0.000165986)
(-6.01461e-06 0.000472727 0.000347799)
(-0.00148618 0.000422936 0.00106304)
(-0.00465644 0.000378585 0.00139162)
(-0.00799149 0.000485755 0.00151799)
(-0.0108204 0.000782315 0.0014659)
(-0.0122331 0.00123159 0.00115079)
(-0.0113256 0.00168154 0.000557758)
(-0.00783162 0.00185434 -9.53302e-05)
(-0.00264925 0.00148393 -0.000285301)
(8.65514e-05 0.000442382 0.000321718)
(-0.000649615 -0.00135149 0.00336131)
(-0.00415827 -0.00170781 0.00670714)
(-0.0101766 -0.00174506 0.00796506)
(-0.0162993 -0.00179844 0.00809248)
(-0.0213918 -0.00199329 0.00721077)
(-0.0239654 -0.00234127 0.00509198)
(-0.0225211 -0.00269753 0.00182975)
(-0.0163994 -0.00272281 -0.00155842)
(-0.00678124 -0.00200041 -0.00293723)
(-0.000681322 -0.00028842 -0.000647086)
(-0.00195962 -0.00394043 0.00558889)
(-0.0107032 -0.00547427 0.0126868)
(-0.0247768 -0.00577077 0.0151601)
(-0.0384969 -0.00596435 0.0145559)
(-0.0491425 -0.006465 0.0112443)
(-0.0537378 -0.00726882 0.00510334)
(-0.0496236 -0.00799822 -0.00302186)
(-0.0359455 -0.00779815 -0.0101373)
(-0.0156044 -0.00582535 -0.0111184)
(-0.00216211 -0.00155104 -0.00304008)
(-0.00294708 -0.00517299 0.00542715)
(-0.0154706 -0.00773194 0.0138514)
(-0.0350813 -0.00831951 0.0165971)
(-0.053627 -0.00858724 0.0150551)
(-0.0673396 -0.00912688 0.00961605)
(-0.072464 -0.00991424 0.00036559)
(-0.0658503 -0.0104543 -0.0109932)
(-0.0468615 -0.00991173 -0.0198049)
(-0.0198546 -0.00753475 -0.0189034)
(-0.00254221 -0.00271666 -0.00523447)
(-0.00356144 -0.00414053 0.00464214)
(-0.0185245 -0.006399 0.0132877)
(-0.041677 -0.00694081 0.0159262)
(-0.0631414 -0.00714537 0.0136105)
(-0.07849 -0.00750509 0.00667785)
(-0.0834927 -0.00799924 -0.00456635)
(-0.0748612 -0.00820778 -0.0177828)
(-0.0524093 -0.00766193 -0.0271465)
(-0.0214996 -0.00588719 -0.0243544)
(-0.00239325 -0.00236977 -0.006675)
(-0.00385069 -0.00156059 0.0040901)
(-0.0200045 -0.0024444 0.0126809)
(-0.044884 -0.00265907 0.0151939)
(-0.0677203 -0.00273123 0.0124576)
(-0.083761 -0.00284821 0.00477082)
(-0.0885558 -0.00300323 -0.00741902)
(-0.0788175 -0.00304385 -0.0214165)
(-0.0546662 -0.00282205 -0.030865)
(-0.0219887 -0.00218175 -0.0269953)
(-0.00221469 -0.00092005 -0.00734235)
(-0.00385069 0.00156061 0.0040901)
(-0.0200045 0.00244441 0.0126809)
(-0.044884 0.00265907 0.0151939)
(-0.0677203 0.00273123 0.0124576)
(-0.083761 0.00284821 0.00477082)
(-0.0885558 0.00300323 -0.00741902)
(-0.0788175 0.00304386 -0.0214165)
(-0.0546662 0.00282205 -0.030865)
(-0.0219887 0.00218175 -0.0269953)
(-0.00221469 0.000920054 -0.00734235)
(-0.00356144 0.00414055 0.00464214)
(-0.0185245 0.006399 0.0132877)
(-0.041677 0.00694081 0.0159263)
(-0.0631414 0.00714537 0.0136105)
(-0.07849 0.00750509 0.00667785)
(-0.0834927 0.00799925 -0.00456635)
(-0.0748612 0.00820779 -0.0177828)
(-0.0524093 0.00766193 -0.0271465)
(-0.0214996 0.0058872 -0.0243544)
(-0.00239325 0.00236977 -0.006675)
(-0.00294708 0.00517301 0.00542715)
(-0.0154706 0.00773194 0.0138514)
(-0.0350813 0.00831952 0.0165971)
(-0.053627 0.00858725 0.0150551)
(-0.0673396 0.00912688 0.00961605)
(-0.072464 0.00991424 0.00036559)
(-0.0658503 0.0104543 -0.0109932)
(-0.0468615 0.00991173 -0.0198049)
(-0.0198546 0.00753475 -0.0189034)
(-0.00254221 0.00271666 -0.00523446)
(-0.00195962 0.00394045 0.00558888)
(-0.0107032 0.00547427 0.0126868)
(-0.0247768 0.00577077 0.0151601)
(-0.0384969 0.00596435 0.0145559)
(-0.0491425 0.006465 0.0112443)
(-0.0537378 0.00726883 0.00510334)
(-0.0496236 0.00799822 -0.00302186)
(-0.0359455 0.00779815 -0.0101373)
(-0.0156044 0.00582535 -0.0111184)
(-0.00216211 0.00155104 -0.00304008)
(-0.000649617 0.00135149 0.00336126)
(-0.00415828 0.00170781 0.00670713)
(-0.0101766 0.00174506 0.00796505)
(-0.0162993 0.00179844 0.00809247)
(-0.0213918 0.0019933 0.00721077)
(-0.0239654 0.00234127 0.00509198)
(-0.0225211 0.00269753 0.00182975)
(-0.0163994 0.00272281 -0.00155842)
(-0.00678124 0.00200041 -0.00293723)
(-0.000681322 0.000288421 -0.000647084)
(-0.00111893 -0.00212153 0.00976013)
(-0.00603457 -0.00277555 0.017437)
(-0.0139153 -0.00278477 0.0198874)
(-0.021904 -0.00264081 0.0196049)
(-0.0289034 -0.0025731 0.0169395)
(-0.0332215 -0.00269711 0.0114775)
(-0.032731 -0.00293566 0.00340367)
(-0.0257004 -0.00296611 -0.00519188)
(-0.0124382 -0.00218653 -0.00954726)
(-0.00217032 -4.31086e-05 -0.00479139)
(-0.00342715 -0.00591549 0.0162294)
(-0.0164581 -0.00827122 0.0319373)
(-0.0360607 -0.00840932 0.036469)
(-0.0548684 -0.00793775 0.0339205)
(-0.0698562 -0.00756946 0.0252521)
(-0.0775233 -0.0075702 0.0104035)
(-0.0741683 -0.00774266 -0.00885501)
(-0.0572316 -0.00747713 -0.0264349)
(-0.0282587 -0.00562375 -0.0309488)
(-0.0054095 -0.000935767 -0.0131255)
(-0.00520961 -0.00745744 0.0172818)
(-0.0243398 -0.0110512 0.0357766)
(-0.0523051 -0.0113332 0.0404671)
(-0.0780809 -0.0105885 0.0353884)
(-0.0973285 -0.00979881 0.0216972)
(-0.105647 -0.00926958 -5.94384e-05)
(-0.0989713 -0.00887448 -0.0263049)
(-0.0749247 -0.00823783 -0.0479094)
(-0.0363327 -0.00640667 -0.04922)
(-0.00667839 -0.00195527 -0.0194806)
(-0.00634701 -0.00582625 0.0166814)
(-0.0294547 -0.00888542 0.0356851)
(-0.0627608 -0.00913109 0.0398577)
(-0.0926192 -0.0084466 0.0327684)
(-0.113876 -0.00762941 0.0156616)
(-0.121771 -0.00691785 -0.0102835)
(-0.112336 -0.00631984 -0.0402345)
(-0.0837535 -0.00573788 -0.063126)
(-0.0398204 -0.00458973 -0.0611678)
(-0.00694222 -0.00172052 -0.0233749)
(-0.00688785 -0.00217015 0.0160802)
(-0.0319325 -0.00334816 0.0350059)
(-0.0678151 -0.00344088 0.0387647)
(-0.099526 -0.00316321 0.0306047)
(-0.121519 -0.00281748 0.0118285)
(-0.128934 -0.00249595 -0.0159904)
(-0.117986 -0.00222352 -0.0473858)
(-0.0872598 -0.00199934 -0.0704843)
(-0.0410385 -0.00162792 -0.0667053)
(-0.00693268 -0.000667015 -0.0251144)
(-0.00688785 0.00217016 0.0160802)
(-0.0319325 0.00334817 0.0350059)
(-0.0678151 0.00344088 0.0387647)
(-0.099526 0.00316321 0.0306047)
(-0.121519 0.00281749 0.0118285)
(-0.128934 0.00249595 -0.0159904)
(-0.117986 0.00222352 -0.0473858)
(-0.0872598 0.00199934 -0.0704843)
(-0.0410385 0.00162792 -0.0667053)
(-0.00693268 0.000667018 -0.0251144)
(-0.00634701 0.00582627 0.0166814)
(-0.0294547 0.00888542 0.0356851)
(-0.0627608 0.00913109 0.0398577)
(-0.0926192 0.0084466 0.0327684)
(-0.113876 0.00762941 0.0156616)
(-0.121771 0.00691785 -0.0102835)
(-0.112336 0.00631984 -0.0402345)
(-0.0837535 0.00573788 -0.063126)
(-0.0398204 0.00458973 -0.0611678)
(-0.00694222 0.00172052 -0.0233749)
(-0.00520961 0.00745745 0.0172818)
(-0.0243398 0.0110512 0.0357766)
(-0.0523051 0.0113332 0.0404671)
(-0.0780809 0.0105885 0.0353884)
(-0.0973285 0.00979882 0.0216972)
(-0.105647 0.00926958 -5.94378e-05)
(-0.0989713 0.00887448 -0.0263049)
(-0.0749247 0.00823783 -0.0479094)
(-0.0363327 0.00640667 -0.04922)
(-0.00667839 0.00195527 -0.0194806)
(-0.00342715 0.0059155 0.0162294)
(-0.0164581 0.00827122 0.0319373)
(-0.0360606 0.00840932 0.036469)
(-0.0548684 0.00793775 0.0339205)
(-0.0698562 0.00756947 0.0252521)
(-0.0775233 0.00757021 0.0104035)
(-0.0741683 0.00774267 -0.00885501)
(-0.0572316 0.00747713 -0.0264349)
(-0.0282587 0.00562375 -0.0309488)
(-0.0054095 0.000935767 -0.0131255)
(-0.00111894 0.00212153 0.0097601)
(-0.00603458 0.00277555 0.017437)
(-0.0139153 0.00278476 0.0198874)
(-0.021904 0.00264081 0.0196049)
(-0.0289034 0.0025731 0.0169395)
(-0.0332215 0.00269711 0.0114775)
(-0.032731 0.00293566 0.00340367)
(-0.0257004 0.00296611 -0.00519188)
(-0.0124382 0.00218653 -0.00954726)
(-0.00217032 4.31087e-05 -0.00479139)
(-0.00150654 -0.00282587 0.0182752)
(-0.00744833 -0.00364682 0.0310871)
(-0.0166037 -0.00344318 0.0345675)
(-0.0260737 -0.00286319 0.0335318)
(-0.0352441 -0.00226788 0.0287172)
(-0.0425203 -0.00193812 0.0193025)
(-0.0449932 -0.00200859 0.00506556)
(-0.0389387 -0.0023259 -0.0111881)
(-0.0223056 -0.00200802 -0.0212126)
(-0.00542287 0.000120283 -0.0136552)
(-0.00465609 -0.0077035 0.0304417)
(-0.0210855 -0.010491 0.0564377)
(-0.0449281 -0.00989569 0.0627506)
(-0.0678931 -0.00796969 0.0574646)
(-0.0874895 -0.00580871 0.0424355)
(-0.100266 -0.00417589 0.0172799)
(-0.10125 -0.00350787 -0.0162409)
(-0.0846217 -0.00387306 -0.0494884)
(-0.0480785 -0.00370371 -0.0626917)
(-0.0116448 -0.000228662 -0.0327972)
(-0.00710547 -0.00948878 0.0334607)
(-0.0315758 -0.0135693 0.0640761)
(-0.0660595 -0.0127239 0.0703345)
(-0.0975826 -0.00980827 0.0607364)
(-0.122284 -0.00632768 0.0376985)
(-0.135893 -0.00331446 0.00182117)
(-0.133253 -0.00164729 -0.0428424)
(-0.108651 -0.00187383 -0.0835416)
(-0.0607025 -0.00264102 -0.0938261)
(-0.0142816 -0.000769471 -0.0453634)
(-0.00867615 -0.00729506 0.0335398)
(-0.0383816 -0.0106872 0.0651398)
(-0.0795561 -0.00994375 0.0704084)
(-0.115806 -0.00739643 0.0575578)
(-0.142454 -0.00428457 0.0294275)
(-0.155156 -0.00148966 -0.0123696)
(-0.149219 6.17057e-05 -0.0621588)
(-0.119681 -0.000176538 -0.105184)
(-0.0660454 -0.00123409 -0.112076)
(-0.0151803 -0.000653556 -0.0523124)
(-0.00942083 -0.00269436 0.0331537)
(-0.0416507 -0.00398467 0.0647465)
(-0.0859842 -0.00368863 0.0692937)
(-0.124249 -0.00268856 0.0547731)
(-0.151405 -0.00146064 0.0243026)
(-0.163223 -0.000353576 -0.0198936)
(-0.155473 0.000256627 -0.0714176)
(-0.123752 0.000143491 -0.114861)
(-0.0679335 -0.000326726 -0.119907)
(-0.0154437 -0.000246679 -0.0552098)
(-0.00942083 0.00269437 0.0331537)
(-0.0416507 0.00398467 0.0647465)
(-0.0859842 0.00368863 0.0692937)
(-0.124249 0.00268856 0.0547731)
(-0.151405 0.00146064 0.0243026)
(-0.163223 0.000353577 -0.0198936)
(-0.155473 -0.000256625 -0.0714176)
(-0.123752 -0.000143488 -0.114861)
(-0.0679335 0.000326729 -0.119907)
(-0.0154437 0.000246681 -0.0552098)
(-0.00867615 0.00729507 0.0335398)
(-0.0383816 0.0106872 0.0651398)
(-0.0795561 0.00994375 0.0704084)
(-0.115806 0.00739643 0.0575578)
(-0.142454 0.00428457 0.0294275)
(-0.155156 0.00148966 -0.0123696)
(-0.149219 -6.17033e-05 -0.0621588)
(-0.119681 0.00017654 -0.105184)
(-0.0660454 0.00123409 -0.112076)
(-0.0151803 0.000653559 -0.0523124)
(-0.00710547 0.00948879 0.0334607)
(-0.0315758 0.0135693 0.0640761)
(-0.0660595 0.0127239 0.0703345)
(-0.0975826 0.00980828 0.0607364)
(-0.122284 0.00632769 0.0376985)
(-0.135893 0.00331447 0.00182117)
(-0.133253 0.00164729 -0.0428424)
(-0.108651 0.00187383 -0.0835416)
(-0.0607025 0.00264102 -0.0938261)
(-0.0142816 0.000769472 -0.0453634)
(-0.00465609 0.0077035 0.0304417)
(-0.0210855 0.010491 0.0564377)
(-0.0449281 0.00989569 0.0627506)
(-0.0678931 0.0079697 0.0574646)
(-0.0874895 0.00580871 0.0424355)
(-0.100266 0.00417589 0.0172799)
(-0.10125 0.00350787 -0.0162409)
(-0.0846217 0.00387306 -0.0494884)
(-0.0480785 0.00370371 -0.0626917)
(-0.0116448 0.000228663 -0.0327972)
(-0.00150654 0.00282587 0.0182752)
(-0.00744834 0.00364682 0.0310871)
(-0.0166037 0.00344318 0.0345675)
(-0.0260737 0.00286319 0.0335318)
(-0.0352441 0.00226788 0.0287172)
(-0.0425203 0.00193812 0.0193025)
(-0.0449932 0.00200859 0.00506556)
(-0.0389387 0.0023259 -0.0111881)
(-0.0223056 0.00200802 -0.0212126)
(-0.00542287 -0.000120283 -0.0136552)
(-0.0020754 -0.00341724 0.0288179)
(-0.00884854 -0.004227 0.0469412)
(-0.0184822 -0.00353124 0.0508004)
(-0.0286891 -0.00212675 0.0484577)
(-0.0399511 -0.000537654 0.041191)
(-0.0513375 0.000728758 0.0275068)
(-0.0592533 0.00110286 0.00596192)
(-0.0571343 0.00024788 -0.020854)
(-0.0388221 -0.000822964 -0.0409063)
(-0.0119736 2.4061e-05 -0.0313171)
(-0.00595554 -0.00914392 0.0478582)
(-0.0249666 -0.011864 0.0849364)
(-0.0512463 -0.00974905 0.0922963)
(-0.0766624 -0.00525583 0.0836384)
(-0.100262 1.66513e-05 0.0620284)
(-0.11954 0.0045216 0.0261112)
(-0.128494 0.00655119 -0.0239011)
(-0.117133 0.0047005 -0.0786745)
(-0.0773124 0.000759268 -0.109509)
(-0.0229992 4.53944e-05 -0.0689419)
(-0.00884519 -0.0110419 0.0533773)
(-0.0371803 -0.0149577 0.0972731)
(-0.0754807 -0.0119726 0.104555)
(-0.110107 -0.00548361 0.0902036)
(-0.138818 0.00221871 0.0583319)
(-0.158549 0.00884579 0.00878969)
(-0.163479 0.0118968 -0.0560159)
(-0.144108 0.00939266 -0.122546)
(-0.0935026 0.00339563 -0.153748)
(-0.0273561 0.000109656 -0.0903158)
(-0.0106547 -0.00836859 0.0544846)
(-0.044949 -0.0115719 0.100057)
(-0.0905625 -0.00905274 0.106083)
(-0.129801 -0.00359286 0.0877322)
(-0.159711 0.00284876 0.0499977)
(-0.17747 0.00827928 -0.00602362)
(-0.17843 0.0105376 -0.0765762)
(-0.154451 0.00822395 -0.146719)
(-0.0995897 0.00321435 -0.176345)
(-0.029005 0.000159557 -0.100832)
(-0.0114945 -0.00306712 0.0545037)
(-0.0486018 -0.00427356 0.10025)
(-0.0975472 -0.00329916 0.105372)
(-0.138541 -0.00119984 0.0850639)
(-0.168366 0.00126045 0.0448696)
(-0.184588 0.00329959 -0.0134113)
(-0.183472 0.00407924 -0.0855583)
(-0.15772 0.00314058 -0.156481)
(-0.101653 0.00125017 -0.185195)
(-0.0296087 7.51424e-05 -0.104918)
(-0.0114945 0.00306713 0.0545037)
(-0.0486018 0.00427356 0.10025)
(-0.0975472 0.00329916 0.105372)
(-0.138541 0.00119984 0.0850639)
(-0.168366 -0.00126045 0.0448696)
(-0.184588 -0.00329958 -0.0134113)
(-0.183472 -0.00407924 -0.0855583)
(-0.15772 -0.00314057 -0.156481)
(-0.101653 -0.00125017 -0.185195)
(-0.0296087 -7.51403e-05 -0.104918)
(-0.0106547 0.0083686 0.0544846)
(-0.044949 0.0115719 0.100057)
(-0.0905625 0.00905273 0.106083)
(-0.129801 0.00359286 0.0877322)
(-0.159711 -0.00284876 0.0499977)
(-0.17747 -0.00827928 -0.00602361)
(-0.17843 -0.0105376 -0.0765762)
(-0.154451 -0.00822395 -0.146719)
(-0.0995897 -0.00321434 -0.176345)
(-0.029005 -0.000159555 -0.100832)
(-0.00884519 0.0110419 0.0533773)
(-0.0371803 0.0149577 0.0972731)
(-0.0754807 0.0119726 0.104555)
(-0.110107 0.00548361 0.0902036)
(-0.138818 -0.00221871 0.0583319)
(-0.158549 -0.00884579 0.00878969)
(-0.163479 -0.0118968 -0.0560159)
(-0.144108 -0.00939265 -0.122546)
(-0.0935026 -0.00339563 -0.153748)
(-0.0273561 -0.000109654 -0.0903158)
(-0.00595554 0.00914392 0.0478582)
(-0.0249666 0.011864 0.0849364)
(-0.0512463 0.00974905 0.0922963)
(-0.0766624 0.00525583 0.0836384)
(-0.100262 -1.66498e-05 0.0620284)
(-0.11954 -0.0045216 0.0261112)
(-0.128494 -0.00655118 -0.0239011)
(-0.117133 -0.0047005 -0.0786745)
(-0.0773124 -0.000759267 -0.109509)
(-0.0229992 -4.53941e-05 -0.0689419)
(-0.0020754 0.00341724 0.0288178)
(-0.00884854 0.004227 0.0469412)
(-0.0184822 0.00353124 0.0508004)
(-0.0286891 0.00212675 0.0484577)
(-0.0399512 0.000537654 0.041191)
(-0.0513375 -0.000728757 0.0275068)
(-0.0592533 -0.00110286 0.00596192)
(-0.0571344 -0.000247879 -0.020854)
(-0.0388221 0.000822964 -0.0409063)
(-0.0119736 -2.40618e-05 -0.0313171)
(-0.00343175 -0.00391412 0.0416683)
(-0.0111708 -0.004471 0.06378)
(-0.0198046 -0.0029233 0.0663082)
(-0.0289477 -0.000214235 0.061538)
(-0.0409842 0.00301096 0.0514873)
(-0.0565329 0.0059564 0.0337333)
(-0.0720645 0.00743921 0.00475323)
(-0.0779908 0.00606306 -0.0350522)
(-0.062327 0.00242605 -0.070691)
(-0.0227702 -0.000325862 -0.063426)
(-0.00802982 -0.0102159 0.0683394)
(-0.0288569 -0.0122638 0.115328)
(-0.0543329 -0.00775955 0.121881)
(-0.0781719 0.000422289 0.109064)
(-0.102228 0.0101154 0.0815264)
(-0.126277 0.0187912 0.0364374)
(-0.144632 0.0229671 -0.0293143)
(-0.143939 0.0189441 -0.109534)
(-0.11012 0.00806737 -0.169532)
(-0.0387084 -0.000792682 -0.129657)
(-0.0110156 -0.0120437 0.0764194)
(-0.0413884 -0.0151216 0.132738)
(-0.0788475 -0.00908273 0.139741)
(-0.111014 0.00204571 0.120886)
(-0.138572 0.0149231 0.0824476)
(-0.161104 0.025757 0.0228118)
(-0.1739 0.0299353 -0.0595944)
(-0.165271 0.0237613 -0.155638)
(-0.124185 0.0100264 -0.222499)
(-0.0434731 -0.000455832 -0.162029)
(-0.012765 -0.00898031 0.0785563)
(-0.049008 -0.0115083 0.137455)
(-0.0933856 -0.00661242 0.143419)
(-0.129082 0.00237417 0.120717)
(-0.156214 0.0125339 0.0769172)
(-0.175074 0.0205807 0.0116035)
(-0.182924 0.0229079 -0.0762077)
(-0.170305 0.0173986 -0.177134)
(-0.12802 0.00708848 -0.245905)
(-0.0452446 -0.00015364 -0.176346)
(-0.0135397 -0.00326312 0.0789882)
(-0.0524572 -0.00421242 0.138344)
(-0.0998237 -0.00235963 0.143476)
(-0.136584 0.00102177 0.118989)
(-0.162732 0.00478677 0.0732098)
(-0.179255 0.00765637 0.00632582)
(-0.1848 0.008318 -0.0826834)
(-0.171087 0.00615298 -0.184913)
(-0.129223 0.00245485 -0.254398)
(-0.0459991 -1.91983e-05 -0.181679)
(-0.0135397 0.00326312 0.0789882)
(-0.0524572 0.00421242 0.138344)
(-0.0998237 0.00235963 0.143476)
(-0.136584 -0.00102177 0.118989)
(-0.162732 -0.00478677 0.0732098)
(-0.179255 -0.00765636 0.00632582)
(-0.1848 -0.00831799 -0.0826834)
(-0.171087 -0.00615297 -0.184913)
(-0.129223 -0.00245484 -0.254398)
(-0.0459991 1.92003e-05 -0.181679)
(-0.012765 0.00898032 0.0785562)
(-0.049008 0.0115083 0.137455)
(-0.0933856 0.00661242 0.143419)
(-0.129082 -0.00237417 0.120717)
(-0.156214 -0.0125339 0.0769172)
(-0.175074 -0.0205807 0.0116035)
(-0.182924 -0.0229079 -0.0762077)
(-0.170305 -0.0173986 -0.177134)
(-0.12802 -0.00708848 -0.245905)
(-0.0452446 0.000153642 -0.176346)
(-0.0110156 0.0120437 0.0764194)
(-0.0413884 0.0151216 0.132738)
(-0.0788475 0.00908273 0.139741)
(-0.111014 -0.00204571 0.120886)
(-0.138572 -0.0149231 0.0824476)
(-0.161104 -0.025757 0.0228118)
(-0.1739 -0.0299353 -0.0595944)
(-0.165271 -0.0237613 -0.155638)
(-0.124185 -0.0100264 -0.222499)
(-0.0434731 0.000455834 -0.162029)
(-0.00802982 0.0102159 0.0683394)
(-0.0288569 0.0122638 0.115328)
(-0.0543329 0.00775955 0.121881)
(-0.0781719 -0.000422288 0.109064)
(-0.102228 -0.0101154 0.0815264)
(-0.126277 -0.0187912 0.0364374)
(-0.144632 -0.0229671 -0.0293143)
(-0.143939 -0.0189441 -0.109534)
(-0.11012 -0.00806737 -0.169532)
(-0.0387084 0.000792682 -0.129657)
(-0.00343175 0.00391412 0.0416683)
(-0.0111708 0.004471 0.06378)
(-0.0198046 0.0029233 0.0663082)
(-0.0289477 0.000214236 0.061538)
(-0.0409842 -0.00301096 0.0514873)
(-0.0565329 -0.0059564 0.0337333)
(-0.0720645 -0.00743921 0.00475323)
(-0.0779908 -0.00606306 -0.0350522)
(-0.062327 -0.00242605 -0.070691)
(-0.0227702 0.000325861 -0.063426)
(-0.0071772 -0.00461971 0.058893)
(-0.0167344 -0.00474314 0.0800668)
(-0.0210318 -0.00202757 0.077694)
(-0.0251293 0.00234278 0.0684449)
(-0.0341083 0.00759255 0.055171)
(-0.0510921 0.0128028 0.0343054)
(-0.0743657 0.0161209 -0.000306106)
(-0.0922407 0.0145402 -0.0533534)
(-0.0874921 0.00728686 -0.109705)
(-0.0361316 -0.00133063 -0.116772)
(-0.0129368 -0.0114532 0.0935961)
(-0.0353671 -0.0124134 0.144626)
(-0.0538546 -0.00499074 0.146033)
(-0.068071 0.00723249 0.127542)
(-0.0838939 0.0215782 0.0955925)
(-0.104832 0.0348752 0.0458803)
(-0.128445 0.0419281 -0.0291034)
(-0.140862 0.0358399 -0.132376)
(-0.127177 0.0160583 -0.231347)
(-0.0499857 -0.00421898 -0.219929)
(-0.0156942 -0.0129275 0.103465)
(-0.0464938 -0.0148503 0.166412)
(-0.0752021 -0.00556285 0.169447)
(-0.0950042 0.00990258 0.14606)
(-0.110763 0.0273012 0.104641)
(-0.126158 0.0418371 0.041921)
(-0.140775 0.0472112 -0.0487238)
(-0.14417 0.0373199 -0.169965)
(-0.128893 0.0147507 -0.283785)
(-0.0509642 -0.00403336 -0.261897)
(-0.0170763 -0.00939615 0.106043)
(-0.0526843 -0.0110744 0.172534)
(-0.0868927 -0.00387576 0.175337)
(-0.108464 0.00806611 0.149268)
(-0.12186 0.0210481 0.104058)
(-0.131683 0.0310072 0.0372683)
(-0.140121 0.0333291 -0.0576211)
(-0.13982 0.0247641 -0.184562)
(-0.12707 0.00894107 -0.304157)
(-0.0514625 -0.00251032 -0.278884)
(-0.0176292 -0.0033717 0.10661)
(-0.055311 -0.00401217 0.17386)
(-0.0917159 -0.00134818 0.176182)
(-0.113497 0.00304517 0.148929)
(-0.125129 0.00772414 0.10256)
(-0.13204 0.0111338 0.0349847)
(-0.138049 0.0116453 -0.0606571)
(-0.137207 0.00835894 -0.189418)
(-0.126586 0.00288059 -0.311355)
(-0.0520022 -0.000805575 -0.285152)
(-0.0176292 0.0033717 0.10661)
(-0.055311 0.00401217 0.17386)
(-0.0917159 0.00134818 0.176182)
(-0.113497 -0.00304517 0.148929)
(-0.125129 -0.00772414 0.10256)
(-0.13204 -0.0111338 0.0349847)
(-0.138049 -0.0116453 -0.0606571)
(-0.137207 -0.00835893 -0.189418)
(-0.126586 -0.00288059 -0.311355)
(-0.0520022 0.000805577 -0.285152)
(-0.0170763 0.00939615 0.106043)
(-0.0526843 0.0110744 0.172534)
(-0.0868927 0.00387575 0.175337)
(-0.108464 -0.00806611 0.149268)
(-0.12186 -0.0210481 0.104058)
(-0.131683 -0.0310072 0.0372683)
(-0.140121 -0.0333291 -0.0576211)
(-0.13982 -0.0247641 -0.184562)
(-0.12707 -0.00894107 -0.304157)
(-0.0514625 0.00251032 -0.278884)
(-0.0156942 0.0129275 0.103465)
(-0.0464938 0.0148503 0.166412)
(-0.0752021 0.00556285 0.169447)
(-0.0950042 -0.00990258 0.14606)
(-0.110763 -0.0273012 0.104641)
(-0.126158 -0.0418371 0.041921)
(-0.140775 -0.0472112 -0.0487238)
(-0.14417 -0.0373199 -0.169965)
(-0.128893 -0.0147507 -0.283785)
(-0.0509642 0.00403336 -0.261897)
(-0.0129368 0.0114532 0.0935961)
(-0.0353671 0.0124134 0.144626)
(-0.0538546 0.00499074 0.146033)
(-0.068071 -0.00723249 0.127542)
(-0.0838939 -0.0215782 0.0955925)
(-0.104832 -0.0348752 0.0458803)
(-0.128445 -0.0419281 -0.0291034)
(-0.140862 -0.0358399 -0.132376)
(-0.127177 -0.0160583 -0.231347)
(-0.0499857 0.00421898 -0.219929)
(-0.0071772 0.00461971 0.058893)
(-0.0167344 0.00474314 0.0800668)
(-0.0210318 0.00202757 0.077694)
(-0.0251293 -0.00234278 0.0684449)
(-0.0341083 -0.00759255 0.055171)
(-0.0510921 -0.0128028 0.0343054)
(-0.0743657 -0.0161209 -0.000306106)
(-0.0922407 -0.0145402 -0.0533534)
(-0.0874921 -0.00728686 -0.109705)
(-0.0361316 0.00133063 -0.116772)
(-0.016585 -0.00633436 0.0817475)
(-0.0286365 -0.00641567 0.0922488)
(-0.0187291 -0.00265126 0.0804864)
(-0.00952193 0.00325044 0.0644732)
(-0.00787198 0.0102139 0.0478965)
(-0.0191639 0.017533 0.0260519)
(-0.0457244 0.0231996 -0.0104014)
(-0.0762476 0.021907 -0.0729753)
(-0.0964335 0.0103698 -0.152272)
(-0.0418187 -0.00599788 -0.195524)
(-0.0258104 -0.0144535 0.122224)
(-0.0507166 -0.015189 0.166084)
(-0.0466849 -0.00577024 0.157066)
(-0.0357279 0.00906827 0.130534)
(-0.0279978 0.0261894 0.0962648)
(-0.0302772 0.0428121 0.0491567)
(-0.0474278 0.0536907 -0.0227187)
(-0.0687945 0.0476551 -0.136023)
(-0.0952921 0.0193078 -0.273717)
(-0.0359479 -0.0141564 -0.326032)
(-0.0287103 -0.015163 0.13195)
(-0.0604847 -0.0169896 0.190591)
(-0.0633179 -0.00615738 0.185102)
(-0.0533021 0.010936 0.155546)
(-0.0406363 0.0298925 0.11442)
(-0.0320596 0.0463507 0.0574995)
(-0.0355352 0.0542221 -0.0263066)
(-0.0448257 0.043796 -0.156104)
(-0.0753249 0.0143002 -0.314348)
(-0.027664 -0.0122526 -0.367387)
(-0.0297265 -0.0105215 0.134068)
(-0.064832 -0.0121428 0.197282)
(-0.0711778 -0.00415061 0.192908)
(-0.0611471 0.00832822 0.16234)
(-0.0450207 0.0216996 0.119191)
(-0.0299301 0.0323715 0.0596763)
(-0.0264606 0.0360346 -0.0272085)
(-0.031515 0.02719 -0.162485)
(-0.0671378 0.00780804 -0.32865)
(-0.0259334 -0.00720174 -0.382679)
(-0.0300258 -0.00368979 0.134438)
(-0.0663788 -0.00430821 0.19867)
(-0.0739377 -0.00141783 0.194383)
(-0.0635263 0.0030544 0.163428)
(-0.0456221 0.0077406 0.119864)
(-0.0277851 0.0112998 0.0600022)
(-0.0220581 0.0122435 -0.02748)
(-0.026686 0.00891602 -0.164693)
(-0.065378 0.00241671 -0.333881)
(-0.0261548 -0.00225436 -0.388327)
(-0.0300258 0.0036898 0.134438)
(-0.0663788 0.00430821 0.19867)
(-0.0739377 0.00141783 0.194383)
(-0.0635263 -0.0030544 0.163428)
(-0.0456221 -0.0077406 0.119864)
(-0.0277851 -0.0112998 0.0600022)
(-0.0220581 -0.0122435 -0.02748)
(-0.026686 -0.00891602 -0.164693)
(-0.065378 -0.00241671 -0.333881)
(-0.0261548 0.00225436 -0.388327)
(-0.0297265 0.0105215 0.134068)
(-0.064832 0.0121428 0.197282)
(-0.0711778 0.00415061 0.192908)
(-0.0611471 -0.00832822 0.16234)
(-0.0450207 -0.0216996 0.119191)
(-0.0299301 -0.0323715 0.0596763)
(-0.0264606 -0.0360346 -0.0272085)
(-0.031515 -0.02719 -0.162485)
(-0.0671378 -0.00780804 -0.32865)
(-0.0259334 0.00720175 -0.382679)
(-0.0287103 0.015163 0.13195)
(-0.0604847 0.0169896 0.190591)
(-0.0633179 0.00615737 0.185102)
(-0.0533021 -0.010936 0.155546)
(-0.0406363 -0.0298925 0.11442)
(-0.0320596 -0.0463507 0.0574995)
(-0.0355352 -0.0542221 -0.0263066)
(-0.0448257 -0.0437959 -0.156104)
(-0.0753249 -0.0143002 -0.314348)
(-0.027664 0.0122526 -0.367387)
(-0.0258104 0.0144535 0.122224)
(-0.0507166 0.015189 0.166084)
(-0.0466849 0.00577024 0.157066)
(-0.0357279 -0.00906827 0.130534)
(-0.0279978 -0.0261894 0.0962648)
(-0.0302772 -0.0428121 0.0491567)
(-0.0474278 -0.0536907 -0.0227187)
(-0.0687945 -0.0476551 -0.136023)
(-0.0952921 -0.0193078 -0.273717)
(-0.0359479 0.0141564 -0.326032)
(-0.016585 0.00633436 0.0817475)
(-0.0286365 0.00641567 0.0922488)
(-0.0187291 0.00265126 0.0804864)
(-0.00952193 -0.00325044 0.0644732)
(-0.00787198 -0.0102139 0.0478965)
(-0.0191639 -0.017533 0.0260519)
(-0.0457244 -0.0231996 -0.0104014)
(-0.0762476 -0.021907 -0.0729753)
(-0.0964335 -0.0103698 -0.152272)
(-0.0418187 0.00599788 -0.195524)
(-0.0238627 -0.0112201 0.150307)
(-0.0205186 -0.0119851 0.0981685)
(0.0275463 -0.0074172 0.0628793)
(0.0616833 -0.000895616 0.0415942)
(0.0825107 0.00647796 0.0252515)
(0.0849299 0.0143791 0.00750121)
(0.0628423 0.0216628 -0.0210379)
(0.0254401 0.0209421 -0.0785452)
(-0.0421569 0.00527662 -0.173761)
(-0.00682998 -0.0177768 -0.259551)
(-0.0426217 -0.0229851 0.209728)
(-0.0421942 -0.0259955 0.16938)
(0.0221246 -0.0167314 0.12764)
(0.0777405 -0.00261473 0.0956813)
(0.122413 0.0136503 0.066305)
(0.150526 0.0302907 0.0326966)
(0.148955 0.0447467 -0.0166523)
(0.130079 0.0429641 -0.107092)
(0.0395671 0.010446 -0.256099)
(0.0435526 -0.031707 -0.369367)
(-0.0479473 -0.020852 0.21988)
(-0.0519236 -0.0258491 0.189625)
(0.011371 -0.0172831 0.150924)
(0.0715437 -0.00312752 0.117795)
(0.125094 0.0132411 0.0846768)
(0.167131 0.0289082 0.0452022)
(0.179782 0.0404074 -0.0111474)
(0.175359 0.0359062 -0.110322)
(0.0801394 0.00625494 -0.275063)
(0.0629287 -0.0224429 -0.395047)
(-0.048975 -0.0133257 0.220865)
(-0.0547463 -0.0172112 0.193711)
(0.00721383 -0.0114814 0.156651)
(0.0685011 -0.00193827 0.123852)
(0.12504 0.00887382 0.0901182)
(0.172261 0.0187767 0.0491119)
(0.189811 0.0251343 -0.00952726)
(0.189564 0.0212213 -0.111653)
(0.090104 0.00370471 -0.281785)
(0.0659685 -0.0117213 -0.403762)
(-0.0490171 -0.00449274 0.220649)
(-0.0551795 -0.00589952 0.194054)
(0.00646054 -0.00390394 0.1574)
(0.0682432 -0.000605429 0.124784)
(0.125786 0.00306869 0.0910908)
(0.174557 0.00634463 0.049903)
(0.193236 0.00829388 -0.00935458)
(0.193261 0.00685088 -0.112632)
(0.0911942 0.00125451 -0.284589)
(0.0655847 -0.00347197 -0.406939)
(-0.0490171 0.00449274 0.220649)
(-0.0551795 0.00589952 0.194054)
(0.00646054 0.00390393 0.1574)
(0.0682432 0.000605426 0.124784)