/*--------------------------------*- C++ -*----------------------------------*\
  =========                 |
  \\      /  F ield         | OpenFOAM: The Open Source CFD Toolbox
   \\    /   O peration     | Website:  https://openfoam.org
    \\  /    A nd           | Version:  9
     \\/     M anipulation  |
\*---------------------------------------------------------------------------*/
FoamFile
{
    format      ascii;
    class       surfaceScalarField;
    location    "0.64";
    object      phi;
}
// * * * * * * * * * * * * * * * * * * * * * * * * * * * * * * * * * * * * * //

dimensions      [0 3 -1 0 0 0 0];

internalField   nonuniform List<scalar> 
2700
(
-6.00025e-08
-1.04407e-07
1.64472e-07
-3.04725e-07
-1.15796e-07
3.6052e-07
-6.28002e-07
-1.16254e-07
4.3953e-07
-9.45706e-07
-1.37553e-07
4.55257e-07
-1.17014e-06
-1.89765e-07
4.14196e-07
-1.20364e-06
-2.67321e-07
3.00823e-07
-9.7981e-07
-3.43016e-07
1.19188e-07
-5.40587e-07
-3.67396e-07
-7.18271e-08
-1.03993e-07
-2.93933e-07
-1.42661e-07
-9.71426e-08
-6.8507e-09
-1.59402e-07
-2.26374e-07
2.8137e-07
-6.86077e-07
-2.99637e-07
7.10517e-07
-1.35142e-06
-3.20406e-07
8.69498e-07
-1.97505e-06
-3.61487e-07
8.47557e-07
-2.38691e-06
-4.4449e-07
6.66592e-07
-2.4126e-06
-5.57977e-07
3.1634e-07
-1.94279e-06
-6.55549e-07
-1.57275e-07
-1.0769e-06
-6.64213e-07
-5.69067e-07
-2.34796e-07
-5.26583e-07
-6.09458e-07
-2.13182e-07
-1.18756e-07
-2.36045e-07
-2.46524e-07
2.56196e-07
-9.53069e-07
-3.50049e-07
7.67436e-07
-1.83693e-06
-3.82541e-07
9.45996e-07
-2.64355e-06
-4.24929e-07
8.7006e-07
-3.14976e-06
-5.01444e-07
5.63162e-07
-3.13689e-06
-6.01622e-07
3.07764e-08
-2.47453e-06
-6.74389e-07
-6.43517e-07
-1.32041e-06
-6.63535e-07
-1.1548e-06
-2.51342e-07
-5.24579e-07
-1.07107e-06
-2.30907e-07
-2.33617e-07
-2.87562e-07
-1.56063e-07
1.97101e-07
-1.12926e-06
-2.28364e-07
7.20013e-07
-2.15311e-06
-2.51711e-07
8.93014e-07
-3.07161e-06
-2.7762e-07
7.71196e-07
-3.62687e-06
-3.21245e-07
3.75065e-07
-3.56257e-06
-3.75615e-07
-2.90312e-07
-2.75779e-06
-4.12875e-07
-1.0663e-06
-1.41422e-06
-4.00299e-07
-1.6068e-06
-2.24056e-07
-3.16392e-07
-1.39835e-06
-1.44895e-07
-3.10069e-07
-3.13931e-07
1.60644e-12
1.57867e-07
-1.21784e-06
1.43869e-12
6.7554e-07
-2.31057e-06
1.13312e-12
8.41023e-07
-3.28203e-06
8.99696e-13
6.93836e-07
-3.85588e-06
6.20182e-13
2.52606e-07
-3.76119e-06
4.7918e-13
-4.70304e-07
-2.87916e-06
3.87017e-13
-1.29491e-06
-1.44182e-06
3.13203e-13
-1.83763e-06
-2.00551e-07
2.50552e-13
-1.55767e-06
2.56825e-13
-3.45446e-07
-3.13931e-07
1.56067e-07
1.57867e-07
-1.21784e-06
2.28367e-07
6.7554e-07
-2.31057e-06
2.51713e-07
8.41023e-07
-3.28203e-06
2.77622e-07
6.93836e-07
-3.85588e-06
3.21246e-07
2.52606e-07
-3.76119e-06
3.75616e-07
-4.70304e-07
-2.87916e-06
4.12875e-07
-1.29491e-06
-1.44182e-06
4.003e-07
-1.83763e-06
-2.00552e-07
3.16393e-07
-1.55767e-06
1.44895e-07
-3.45446e-07
-2.87563e-07
2.46529e-07
1.971e-07
-1.12926e-06
3.50053e-07
7.20013e-07
-2.15311e-06
3.82544e-07
8.93014e-07
-3.07161e-06
4.24931e-07
7.71196e-07
-3.62687e-06
5.01445e-07
3.75065e-07
-3.56257e-06
6.01623e-07
-2.90312e-07
-2.75779e-06
6.7439e-07
-1.0663e-06
-1.41422e-06
6.63535e-07
-1.6068e-06
-2.24056e-07
5.24579e-07
-1.39835e-06
2.30908e-07
-3.10069e-07
-2.36047e-07
2.26382e-07
2.56194e-07
-9.53071e-07
2.99643e-07
7.67435e-07
-1.83693e-06
3.20409e-07
9.45995e-07
-2.64355e-06
3.61489e-07
8.7006e-07
-3.14976e-06
4.44491e-07
5.63162e-07
-3.13689e-06
5.57978e-07
3.07763e-08
-2.47453e-06
6.55549e-07
-6.43517e-07
-1.32041e-06
6.64213e-07
-1.1548e-06
-2.51342e-07
5.26584e-07
-1.07107e-06
2.13182e-07
-2.33617e-07
-1.59408e-07
1.04426e-07
2.81364e-07
-6.86082e-07
1.15803e-07
7.10514e-07
-1.35143e-06
1.16257e-07
8.69497e-07
-1.97505e-06
1.37554e-07
8.47556e-07
-2.38691e-06
1.89766e-07
6.66592e-07
-2.4126e-06
2.67322e-07
3.1634e-07
-1.94279e-06
3.43016e-07
-1.57275e-07
-1.0769e-06
3.67396e-07
-5.69067e-07
-2.34796e-07
2.93933e-07
-6.09458e-07
9.71426e-08
-1.18756e-07
-6.00252e-08
1.64451e-07
-3.04735e-07
3.60513e-07
-6.28006e-07
4.39528e-07
-9.45708e-07
4.55256e-07
-1.17014e-06
4.14196e-07
-1.20364e-06
3.00823e-07
-9.79811e-07
1.19188e-07
-5.40588e-07
-7.18272e-08
-1.03993e-07
-1.42661e-07
-6.8508e-09
-2.19603e-07
-2.7378e-07
6.57856e-07
-7.20438e-07
-3.63884e-07
1.22524e-06
-1.32255e-06
-3.79468e-07
1.42111e-06
-1.89503e-06
-3.8928e-07
1.41701e-06
-2.29465e-06
-4.21577e-07
1.23539e-06
-2.36196e-06
-4.78102e-07
8.46236e-07
-1.98171e-06
-5.31969e-07
2.70906e-07
-1.19385e-06
-5.25e-07
-3.34681e-07
-3.31386e-07
-3.90021e-07
-6.15107e-07
-8.40229e-08
-2.54214e-07
-5.97174e-07
-4.9782e-07
1.10258e-06
-1.80794e-06
-7.2098e-07
2.27837e-06
-3.19637e-06
-7.6689e-07
2.64535e-06
-4.43707e-06
-7.85818e-07
2.4848e-06
-5.22177e-06
-8.34059e-07
1.86377e-06
-5.25549e-06
-9.10976e-07
7.82934e-07
-4.35453e-06
-9.7599e-07
-6.14218e-07
-2.64794e-06
-9.3496e-07
-1.8657e-06
-8.18456e-07
-7.06283e-07
-2.12268e-06
-2.30497e-07
-7.90738e-07
-8.82349e-07
-5.05117e-07
1.14584e-06
-2.60275e-06
-7.64818e-07
2.53168e-06
-4.51782e-06
-8.22112e-07
2.91628e-06
-6.1617e-06
-8.40543e-07
2.56867e-06
-7.12211e-06
-8.80829e-07
1.57033e-06
-7.05643e-06
-9.43364e-07
-2.51062e-09
-5.74395e-06
-9.76439e-07
-1.95554e-06
-3.42776e-06
-9.16777e-07
-3.48917e-06
-1.03238e-06
-7.00304e-07
-3.47244e-06
-2.69176e-07
-1.22732e-06
-1.06875e-06
-3.09892e-07
1.07062e-06
-3.12433e-06
-4.7941e-07
2.49019e-06
-5.37157e-06
-5.17774e-07
2.83591e-06
-7.24794e-06
-5.28004e-07
2.33503e-06
-8.28298e-06
-5.48002e-07
1.07728e-06
-8.09689e-06
-5.779e-07
-8.4186e-07
-6.49475e-06
-5.87365e-07
-3.05751e-06
-3.7985e-06
-5.45321e-07
-4.67451e-06
-1.09691e-06
-4.19769e-07
-4.38048e-06
-1.73783e-07
-1.50237e-06
-1.16045e-06
1.4462e-12
1.00842e-06
-3.38232e-06
1.23751e-12
2.418e-06
-5.79024e-06
9.21226e-13
2.73117e-06
-7.77147e-06
7.23711e-13
2.14706e-06
-8.82925e-06
5.39602e-13
7.62375e-07
-8.56838e-06
4.34071e-13
-1.30907e-06
-6.81632e-06
3.63887e-13
-3.63434e-06
-3.93986e-06
3.13439e-13
-5.25941e-06
-1.10794e-06
2.47617e-13
-4.80935e-06
2.25855e-13
-1.62717e-06
-1.16045e-06
3.09895e-07
1.00842e-06
-3.38232e-06
4.79412e-07
2.418e-06
-5.79024e-06
5.17776e-07
2.73117e-06
-7.77148e-06
5.28005e-07
2.14706e-06
-8.82925e-06
5.48003e-07
7.62375e-07
-8.56838e-06
5.77901e-07
-1.30907e-06
-6.81632e-06
5.87366e-07
-3.63434e-06
-3.93986e-06
5.45322e-07
-5.25941e-06
-1.10794e-06
4.19769e-07
-4.80935e-06
1.73783e-07
-1.62717e-06
-1.06875e-06
5.0512e-07
1.07062e-06
-3.12433e-06
7.64821e-07
2.49019e-06
-5.37157e-06
8.22114e-07
2.83591e-06
-7.24794e-06
8.40544e-07
2.33502e-06
-8.28298e-06
8.8083e-07
1.07728e-06
-8.09689e-06
9.43365e-07
-8.4186e-07
-6.49475e-06
9.7644e-07
-3.05751e-06
-3.7985e-06
9.16778e-07
-4.67451e-06
-1.09691e-06
7.00304e-07
-4.38048e-06
2.69176e-07
-1.50237e-06
-8.8235e-07
4.97825e-07
1.14584e-06
-2.60275e-06
7.20983e-07
2.53168e-06
-4.51782e-06
7.66892e-07
2.91628e-06
-6.1617e-06
7.85819e-07
2.56867e-06
-7.12211e-06
8.3406e-07
1.57033e-06
-7.05643e-06
9.10977e-07
-2.51078e-09
-5.74395e-06
9.7599e-07
-1.95554e-06
-3.42777e-06
9.3496e-07
-3.48917e-06
-1.03238e-06
7.06283e-07
-3.47244e-06
2.30497e-07
-1.22732e-06
-5.97177e-07
2.73786e-07
1.10258e-06
-1.80794e-06
3.63887e-07
2.27837e-06
-3.19637e-06
3.7947e-07
2.64535e-06
-4.43707e-06
3.89281e-07
2.4848e-06
-5.22177e-06
4.21577e-07
1.86377e-06
-5.25549e-06
4.78102e-07
7.82933e-07
-4.35453e-06
5.31969e-07
-6.14218e-07
-2.64794e-06
5.25e-07
-1.8657e-06
-8.18456e-07
3.90021e-07
-2.12268e-06
8.40228e-08
-7.90738e-07
-2.1961e-07
6.57847e-07
-7.20443e-07
1.22523e-06
-1.32255e-06
1.42111e-06
-1.89503e-06
1.41701e-06
-2.29465e-06
1.23539e-06
-2.36196e-06
8.46235e-07
-1.98171e-06
2.70905e-07
-1.19385e-06
-3.34681e-07
-3.31386e-07
-6.15107e-07
-2.54214e-07
-3.32362e-07
-4.19201e-07
1.40942e-06
-1.00398e-06
-5.61057e-07
2.45791e-06
-1.78594e-06
-5.65052e-07
2.76813e-06
-2.54571e-06
-5.27997e-07
2.70478e-06
-3.13179e-06
-5.0021e-07
2.32168e-06
-3.34248e-06
-5.03851e-07
1.56078e-06
-2.97601e-06
-5.27011e-07
4.31444e-07
-1.97015e-06
-5.22131e-07
-8.18408e-07
-6.70554e-07
-3.92934e-07
-1.52177e-06
-3.99286e-08
-8.84839e-07
-9.49577e-07
-7.26032e-07
2.35899e-06
-2.67856e-06
-1.04485e-06
4.49115e-06
-4.58902e-06
-1.05967e-06
5.05043e-06
-6.29898e-06
-9.8038e-07
4.64714e-06
-7.4577e-06
-9.04271e-07
3.42655e-06
-7.69184e-06
-8.67128e-07
1.38036e-06
-6.67951e-06
-8.53134e-07
-1.30042e-06
-4.3965e-06
-8.09537e-07
-3.8613e-06
-1.57792e-06
-6.23616e-07
-4.71058e-06
-1.54921e-07
-2.25367e-06
-1.43066e-06
-7.15237e-07
2.5657e-06
-3.94737e-06
-1.06904e-06
5.07257e-06
-6.63075e-06
-1.08737e-06
5.62736e-06
-8.90691e-06
-9.95775e-07
4.86023e-06
-1.03069e-05
-8.95731e-07
2.9618e-06
-1.03951e-05
-8.20689e-07
3.92584e-08
-8.84631e-06
-7.66175e-07
-3.59132e-06
-5.71951e-06
-7.06026e-07
-6.71948e-06
-2.01718e-06
-5.5839e-07
-7.24e-06
-1.90362e-07
-3.20906e-06
-1.74913e-06
-4.31356e-07
2.53587e-06
-4.78432e-06
-6.56823e-07
5.11316e-06
-7.94619e-06
-6.68324e-07
5.57874e-06
-1.05277e-05
-6.06948e-07
4.5277e-06
-1.19972e-05
-5.35674e-07
2.18675e-06
-1.19113e-05
-4.74851e-07
-1.27365e-06
-9.98215e-06
-4.27384e-07
-5.32542e-06
-6.35329e-06
-3.8744e-07
-8.62195e-06
-2.18935e-06
-3.1348e-07
-8.78933e-06
-1.23478e-07
-3.7586e-06
-1.90572e-06
1.19232e-12
2.48279e-06
-5.19585e-06
9.35366e-13
5.05131e-06
-8.58357e-06
6.73998e-13
5.45055e-06
-1.12935e-05
5.48188e-13
4.25008e-06
-1.2768e-05
4.36444e-13
1.70115e-06
-1.25722e-05
3.75023e-13
-1.97975e-06
-1.04512e-05
3.3741e-13
-6.18265e-06
-6.59633e-06
3.03652e-13
-9.50174e-06
-2.24345e-06
2.59046e-13
-9.47571e-06
2.4077e-13
-3.99411e-06
-1.90572e-06
4.31359e-07
2.48279e-06
-5.19585e-06
6.56825e-07
5.05131e-06
-8.58357e-06
6.68325e-07
5.45055e-06
-1.12935e-05
6.06949e-07
4.25008e-06
-1.2768e-05
5.35674e-07
1.70115e-06
-1.25722e-05
4.74852e-07
-1.97975e-06
-1.04512e-05
4.27385e-07
-6.18265e-06
-6.59633e-06
3.87441e-07
-9.50174e-06
-2.24345e-06
3.1348e-07
-9.47571e-06
1.23478e-07
-3.99411e-06
-1.74913e-06
7.1524e-07
2.53587e-06
-4.78432e-06
1.06904e-06
5.11316e-06
-7.94619e-06
1.08737e-06
5.57874e-06
-1.05277e-05
9.95776e-07
4.5277e-06
-1.19972e-05
8.95732e-07
2.18675e-06
-1.19113e-05
8.2069e-07
-1.27365e-06
-9.98215e-06
7.66176e-07
-5.32542e-06
-6.35329e-06
7.06026e-07
-8.62195e-06
-2.18935e-06
5.58391e-07
-8.78933e-06
1.90362e-07
-3.7586e-06
-1.43066e-06
7.26035e-07
2.5657e-06
-3.94737e-06
1.04485e-06
5.07257e-06
-6.63075e-06
1.05967e-06
5.62736e-06
-8.90691e-06
9.80381e-07
4.86023e-06
-1.03069e-05
9.04272e-07
2.9618e-06
-1.03951e-05
8.67128e-07
3.92582e-08
-8.84631e-06
8.53135e-07
-3.59132e-06
-5.71951e-06
8.09537e-07
-6.71948e-06
-2.01718e-06
6.23617e-07
-7.24e-06
1.54921e-07
-3.20906e-06
-9.49578e-07
4.19204e-07
2.35899e-06
-2.67856e-06
5.61058e-07
4.49115e-06
-4.58902e-06
5.65053e-07
5.05043e-06
-6.29898e-06
5.27997e-07
4.64714e-06
-7.4577e-06
5.00211e-07
3.42655e-06
-7.69184e-06
5.03851e-07
1.38036e-06
-6.67951e-06
5.27011e-07
-1.30042e-06
-4.3965e-06
5.22132e-07
-3.8613e-06
-1.57792e-06
3.92934e-07
-4.71058e-06
3.99286e-08
-2.25367e-06
-3.32364e-07
1.40941e-06
-1.00398e-06
2.45791e-06
-1.78594e-06
2.76812e-06
-2.54571e-06
2.70478e-06
-3.13179e-06
2.32168e-06
-3.34248e-06
1.56078e-06
-2.97601e-06
4.31444e-07
-1.97015e-06
-8.18408e-07
-6.70554e-07
-1.52177e-06
-8.84839e-07
-4.16721e-07
-5.48142e-07
2.37428e-06
-1.2044e-06
-7.13724e-07
3.95931e-06
-2.1137e-06
-6.66913e-07
4.34434e-06
-3.05166e-06
-5.32286e-07
4.17502e-06
-3.89787e-06
-3.89278e-07
3.55718e-06
-4.41828e-06
-2.938e-07
2.37499e-06
-4.27359e-06
-2.72028e-07
5.58783e-07
-3.16716e-06
-3.18506e-07
-1.60633e-06
-1.30446e-06
-2.99876e-07
-3.0846e-06
-6.04056e-10
-2.1887e-06
-1.2289e-06
-9.25754e-07
3.96551e-06
-3.35202e-06
-1.28658e-06
7.18712e-06
-5.66327e-06
-1.19396e-06
7.88873e-06
-7.80266e-06
-9.13304e-07
7.16755e-06
-9.44863e-06
-5.95512e-07
5.27875e-06
-1.01727e-05
-3.45343e-07
2.156e-06
-9.43388e-06
-2.26668e-07
-2.08463e-06
-6.82001e-06
-2.69624e-07
-6.52405e-06
-2.83324e-06
-3.14269e-07
-8.68295e-06
-5.16815e-08
-5.03584e-06
-1.87025e-06
-8.95383e-07
4.40558e-06
-5.00384e-06
-1.28566e-06
8.20524e-06
-8.27272e-06
-1.18331e-06
8.8856e-06
-1.10917e-05
-8.70589e-07
7.63646e-06
-1.30276e-05
-5.05536e-07
4.80776e-06
-1.35935e-05
-1.95135e-07
4.54981e-07
-1.22748e-05
-3.56124e-08
-5.10115e-06
-8.6928e-06
-7.36245e-08
-1.04974e-05
-3.5576e-06
-1.80062e-07
-1.25094e-05
-6.92382e-08
-6.7491e-06
-2.29431e-06
-5.33568e-07
4.46837e-06
-6.08502e-06
-7.78159e-07
8.39636e-06
-9.92417e-06
-7.11099e-07
8.94569e-06
-1.30691e-05
-5.0822e-07
7.31028e-06
-1.50371e-05
-2.68898e-07
3.9181e-06
-1.53825e-05
-6.1751e-08
-1.06167e-06
-1.36428e-05
4.53217e-08
-7.14603e-06
-9.5291e-06
1.90308e-08
-1.28283e-05
-3.84982e-06
-6.69718e-08
-1.45817e-05
-4.37758e-08
-7.63388e-06
-2.50094e-06
9.30051e-13
4.45016e-06
-6.60897e-06
6.98884e-13
8.38119e-06
-1.07062e-05
5.08956e-13
8.83664e-06
-1.39706e-05
4.31115e-13
7.00626e-06
-1.5907e-05
3.75198e-13
3.36865e-06
-1.61075e-05
3.42505e-13
-1.84102e-06
-1.41649e-05
3.2433e-13
-8.07992e-06
-9.83297e-06
2.88544e-13
-1.38146e-05
-3.94987e-06
2.55712e-13
-1.54258e-05
2.37539e-13
-7.98775e-06
-2.50094e-06
5.3357e-07
4.45016e-06
-6.60897e-06
7.7816e-07
8.38119e-06
-1.07062e-05
7.111e-07
8.83664e-06
-1.39706e-05
5.08221e-07
7.00626e-06
-1.5907e-05
2.68899e-07
3.36865e-06
-1.61075e-05
6.17516e-08
-1.84102e-06
-1.41649e-05
-4.53211e-08
-8.07992e-06
-9.83297e-06
-1.90303e-08
-1.38146e-05
-3.94987e-06
6.69723e-08
-1.54258e-05
4.37762e-08
-7.98775e-06
-2.29431e-06
8.95384e-07
4.46837e-06
-6.08502e-06
1.28567e-06
8.39636e-06
-9.92417e-06
1.18331e-06
8.94569e-06
-1.30691e-05
8.7059e-07
7.31028e-06
-1.50371e-05
5.05537e-07
3.9181e-06
-1.53825e-05
1.95136e-07
-1.06167e-06
-1.36428e-05
3.56129e-08
-7.14603e-06
-9.5291e-06
7.36249e-08
-1.28283e-05
-3.84982e-06
1.80063e-07
-1.45817e-05
6.92386e-08
-7.63388e-06
-1.87025e-06
9.25755e-07
4.40558e-06
-5.00384e-06
1.28658e-06
8.20524e-06
-8.27272e-06
1.19396e-06
8.8856e-06
-1.10917e-05
9.13305e-07
7.63646e-06
-1.30276e-05
5.95513e-07
4.80776e-06
-1.35935e-05
3.45343e-07
4.5498e-07
-1.22748e-05
2.26668e-07
-5.10115e-06
-8.6928e-06
2.69624e-07
-1.04974e-05
-3.5576e-06
3.1427e-07
-1.25094e-05
5.16816e-08
-6.7491e-06
-1.2289e-06
5.48143e-07
3.9655e-06
-3.35202e-06
7.13725e-07
7.18712e-06
-5.66327e-06
6.66913e-07
7.88873e-06
-7.80266e-06
5.32286e-07
7.16755e-06
-9.44863e-06
3.89278e-07
5.27875e-06
-1.01727e-05
2.938e-07
2.156e-06
-9.43388e-06
2.72029e-07
-2.08463e-06
-6.82001e-06
3.18506e-07
-6.52405e-06
-2.83325e-06
2.99876e-07
-8.68295e-06
6.04204e-10
-5.03584e-06
-4.16721e-07
2.37428e-06
-1.2044e-06
3.95931e-06
-2.1137e-06
4.34434e-06
-3.05166e-06
4.17502e-06
-3.89787e-06
3.55718e-06
-4.41828e-06
2.37499e-06
-4.27359e-06
5.58783e-07
-3.16716e-06
-1.60633e-06
-1.30446e-06
-3.0846e-06
-2.1887e-06
-5.10789e-07
-6.50151e-07
3.53522e-06
-1.35856e-06
-8.04808e-07
5.6119e-06
-2.31509e-06
-6.55068e-07
5.95593e-06
-3.38519e-06
-3.53109e-07
5.59823e-06
-4.54236e-06
3.53039e-09
4.71081e-06
-5.55474e-06
2.79129e-07
3.10824e-06
-5.91875e-06
3.84312e-07
5.38481e-07
-4.95314e-06
2.36942e-07
-2.80888e-06
-2.45485e-06
-2.15048e-10
-5.58267e-06
8.63373e-09
-4.65218e-06
-1.47159e-06
-1.07544e-06
5.86238e-06
-3.84104e-06
-1.41603e-06
1.01678e-05
-6.36877e-06
-1.12396e-06
1.08854e-05
-8.81715e-06
-5.16964e-07
9.77978e-06
-1.09806e-05
1.82477e-07
7.26321e-06
-1.24472e-05
7.61876e-07
3.13986e-06
-1.24387e-05
1.01031e-06
-2.71913e-06
-9.97053e-06
7.65683e-07
-9.52093e-06
-4.83952e-06
2.37113e-07
-1.40513e-05
1.07394e-08
-9.87746e-06
-2.21319e-06
-1.02355e-06
6.56689e-06
-5.72675e-06
-1.38752e-06
1.16903e-05
-9.3009e-06
-1.07435e-06
1.24101e-05
-1.2451e-05
-4.22058e-07
1.06917e-05
-1.48796e-05
3.24594e-07
7.0942e-06
-1.61495e-05
9.36936e-07
1.54981e-06
-1.55584e-05
1.18926e-06
-5.87124e-06
-1.21604e-05
9.23879e-07
-1.40536e-05
-5.82917e-06
3.51962e-07
-1.89555e-05
1.73797e-08
-1.25849e-05
-2.69289e-06
-6.03322e-07
6.74104e-06
-6.92951e-06
-8.28629e-07
1.20741e-05
-1.1088e-05
-6.29466e-07
1.26593e-05
-1.45106e-05
-2.17105e-07
1.05279e-05
-1.68816e-05
2.5131e-07
6.36238e-06
-1.78333e-05
6.30217e-07
1.96799e-07
-1.68254e-05
7.7012e-07
-7.73482e-06
-1.29913e-05
5.9315e-07
-1.63317e-05
-6.19945e-06
2.36373e-07
-2.1258e-05
1.43457e-08
-1.38303e-05
-2.92144e-06
7.05073e-13
6.76827e-06
-7.49678e-06
5.11533e-13
1.21279e-05
-1.19024e-05
3.5497e-13
1.26128e-05
-1.53959e-05
2.89655e-13
1.02827e-05
-1.76699e-05
2.7929e-13
5.894e-06
-1.84329e-05
2.8333e-13
-4.47783e-07
-1.72367e-05
2.96075e-13
-8.506e-06
-1.32588e-05
2.66266e-13
-1.71994e-05
-6.32745e-06
2.55853e-13
-2.21207e-05
2.21457e-13
-1.43009e-05
-2.92144e-06
6.03324e-07
6.76827e-06
-7.49678e-06
8.2863e-07
1.21279e-05
-1.19024e-05
6.29467e-07
1.26128e-05
-1.53959e-05
2.17106e-07
1.02827e-05
-1.76699e-05
-2.51309e-07
5.894e-06
-1.84329e-05
-6.30217e-07
-4.47783e-07
-1.72367e-05
-7.7012e-07
-8.506e-06
-1.32588e-05
-5.93149e-07
-1.71994e-05
-6.32745e-06
-2.36373e-07
-2.21207e-05
-1.43453e-08
-1.43009e-05
-2.69289e-06
1.02355e-06
6.74104e-06
-6.92951e-06
1.38752e-06
1.20741e-05
-1.1088e-05
1.07435e-06
1.26593e-05
-1.45106e-05
4.22059e-07
1.05279e-05
-1.68816e-05
-3.24594e-07
6.36238e-06
-1.78333e-05
-9.36936e-07
1.96799e-07
-1.68254e-05
-1.18926e-06
-7.73482e-06
-1.29913e-05
-9.23878e-07
-1.63317e-05
-6.19945e-06
-3.51962e-07
-2.1258e-05
-1.73794e-08
-1.38303e-05
-2.21319e-06
1.07544e-06
6.56689e-06
-5.72675e-06
1.41603e-06
1.16903e-05
-9.3009e-06
1.12397e-06
1.24101e-05
-1.2451e-05
5.16964e-07
1.06917e-05
-1.48796e-05
-1.82477e-07
7.0942e-06
-1.61495e-05
-7.61876e-07
1.54981e-06
-1.55584e-05
-1.01031e-06
-5.87124e-06
-1.21604e-05
-7.65683e-07
-1.40536e-05
-5.82917e-06
-2.37112e-07
-1.89555e-05
-1.07392e-08
-1.25849e-05
-1.47159e-06
6.50151e-07
5.86238e-06
-3.84105e-06
8.04808e-07
1.01678e-05
-6.36877e-06
6.55068e-07
1.08854e-05
-8.81715e-06
3.5311e-07
9.77978e-06
-1.09806e-05
-3.5301e-09
7.26321e-06
-1.24472e-05
-2.79128e-07
3.13986e-06
-1.24387e-05
-3.84311e-07
-2.71913e-06
-9.97053e-06
-2.36942e-07
-9.52093e-06
-4.83952e-06
2.15149e-10
-1.40513e-05
-8.63361e-09
-9.87746e-06
-5.1079e-07
3.53522e-06
-1.35857e-06
5.61189e-06
-2.31509e-06
5.95593e-06
-3.38519e-06
5.59823e-06
-4.54236e-06
4.71081e-06
-5.55474e-06
3.10824e-06
-5.91875e-06
5.38481e-07
-4.95314e-06
-2.80888e-06
-2.45485e-06
-5.58267e-06
-4.65218e-06
-7.03906e-07
-7.27273e-07
4.9664e-06
-1.53147e-06
-8.27657e-07
7.26711e-06
-2.36827e-06
-5.15826e-07
7.30857e-06
-3.41587e-06
3.62822e-08
6.60955e-06
-4.8071e-06
6.75634e-07
5.42641e-06
-6.41384e-06
1.24467e-06
3.47031e-06
-7.60858e-06
1.51233e-06
2.20895e-07
-7.23181e-06
1.22002e-06
-4.40568e-06
-4.28058e-06
4.91278e-07
-9.02517e-06
-6.42907e-08
-8.86848e-06
-1.76098e-06
-1.17187e-06
8.06796e-06
-4.15932e-06
-1.4279e-06
1.31664e-05
-6.53692e-06
-8.51444e-07
1.35986e-05
-8.90992e-06
1.83696e-07
1.20054e-05
-1.13206e-05
1.36797e-06
8.9815e-06
-1.34887e-05
2.36675e-06
4.18591e-06
-1.45629e-05
2.77397e-06
-2.90653e-06
-1.29941e-05
2.22644e-06
-1.20962e-05
-7.41302e-06
9.47135e-07
-2.00882e-05
-5.87864e-08
-1.7296e-05
-2.51218e-06
-1.09439e-06
9.00159e-06
-6.05554e-06
-1.37445e-06
1.51802e-05
-9.41975e-06
-7.81718e-07
1.57046e-05
-1.23654e-05
2.80232e-07
1.35408e-05
-1.48523e-05
1.46371e-06
9.48539e-06
-1.66463e-05
2.40588e-06
3.30466e-06
-1.70837e-05
2.70252e-06
-5.36234e-06
-1.47791e-05
2.08974e-06
-1.62215e-05
-8.35531e-06
8.69446e-07
-2.53016e-05
-2.97292e-08
-2.09693e-05
-2.97475e-06
-6.37118e-07
9.25851e-06
-7.20799e-06
-8.10501e-07
1.57434e-05
-1.10729e-05
-4.44032e-07
1.61864e-05
-1.41517e-05
2.07972e-07
1.36791e-05
-1.64078e-05
9.18122e-07
9.16406e-06
-1.77562e-05
1.45383e-06
2.49719e-06
-1.77671e-05
1.58541e-06
-6.60682e-06
-1.52195e-05
1.18632e-06
-1.79759e-05
-8.64848e-06
4.79721e-07
-2.74392e-05
-8.76262e-09
-2.24997e-05
-3.18661e-06
5.39609e-13
9.31776e-06
-7.72875e-06
3.72619e-13
1.58595e-05
-1.17842e-05
2.48581e-13
1.62242e-05
-1.48521e-05
2.16333e-13
1.35586e-05
-1.69285e-05
2.50125e-13
8.88845e-06
-1.80314e-05
2.83069e-13
2.109e-06
-1.78847e-05
2.81019e-13
-7.06731e-06
-1.53139e-05
2.55954e-13
-1.8584e-05
-8.75524e-06
2.32357e-13
-2.81996e-05
1.91411e-13
-2.30649e-05
-3.18661e-06
6.37119e-07
9.31776e-06
-7.72875e-06
8.10502e-07
1.58595e-05
-1.17842e-05
4.44032e-07
1.62242e-05
-1.48521e-05
-2.07971e-07
1.35586e-05
-1.69285e-05
-9.18122e-07
8.88845e-06
-1.80314e-05
-1.45383e-06
2.109e-06
-1.78847e-05
-1.58541e-06
-7.06731e-06
-1.53139e-05
-1.18632e-06
-1.8584e-05
-8.75524e-06
-4.79721e-07
-2.81996e-05
8.763e-09
-2.30649e-05
-2.97475e-06
1.09439e-06
9.25851e-06
-7.20799e-06
1.37445e-06
1.57434e-05
-1.10729e-05
7.81719e-07
1.61864e-05
-1.41517e-05
-2.80232e-07
1.36791e-05
-1.64078e-05
-1.46371e-06
9.16406e-06
-1.77562e-05
-2.40588e-06
2.49719e-06
-1.77671e-05
-2.70252e-06
-6.60682e-06
-1.52195e-05
-2.08974e-06
-1.79759e-05
-8.64848e-06
-8.69446e-07
-2.74392e-05
2.97294e-08
-2.24997e-05
-2.51218e-06
1.17188e-06
9.00159e-06
-6.05554e-06
1.4279e-06
1.51802e-05
-9.41975e-06
8.51444e-07
1.57046e-05
-1.23654e-05
-1.83696e-07
1.35408e-05
-1.48523e-05
-1.36797e-06
9.48539e-06
-1.66463e-05
-2.36675e-06
3.30466e-06
-1.70837e-05
-2.77397e-06
-5.36234e-06
-1.47791e-05
-2.22644e-06
-1.62215e-05
-8.35531e-06
-9.47135e-07
-2.53016e-05
5.87866e-08
-2.09693e-05
-1.76098e-06
7.27273e-07
8.06796e-06
-4.15932e-06
8.27657e-07
1.31664e-05
-6.53692e-06
5.15826e-07
1.35986e-05
-8.90992e-06
-3.62821e-08
1.20054e-05
-1.13206e-05
-6.75633e-07
8.9815e-06
-1.34887e-05
-1.24467e-06
4.18591e-06
-1.45629e-05
-1.51233e-06
-2.90653e-06
-1.29941e-05
-1.22002e-06
-1.20962e-05
-7.41302e-06
-4.91278e-07
-2.00882e-05
6.42908e-08
-1.7296e-05
-7.03906e-07
4.9664e-06
-1.53147e-06
7.26711e-06
-2.36827e-06
7.30856e-06
-3.41587e-06
6.60954e-06
-4.8071e-06
5.42641e-06
-6.41384e-06
3.47031e-06
-7.60858e-06
2.20895e-07
-7.23181e-06
-4.40568e-06
-4.28059e-06
-9.02517e-06
-8.86848e-06
-1.23726e-06
-8.30027e-07
7.03369e-06
-1.85771e-06
-8.41875e-07
8.72944e-06
-2.21783e-06
-3.25332e-07
7.99402e-06
-2.85136e-06
5.10759e-07
6.73231e-06
-4.14661e-06
1.48954e-06
5.23211e-06
-6.18244e-06
2.4263e-06
3.07984e-06
-8.41934e-06
2.96752e-06
-5.09725e-07
-9.22337e-06
2.58516e-06
-6.18681e-06
-6.50223e-06
1.20399e-06
-1.29503e-05
-2.9207e-07
-1.50786e-05
-2.39695e-06
-1.26817e-06
1.09031e-05
-4.42787e-06
-1.40906e-06
1.57645e-05
-5.95156e-06
-5.21167e-07
1.53181e-05
-7.41859e-06
9.31724e-07
1.30514e-05
-9.23949e-06
2.57426e-06
9.71768e-06
-1.14706e-05
3.99048e-06
4.85284e-06
-1.35213e-05
4.60257e-06
-2.4909e-06
-1.3657e-05
3.75953e-06
-1.31349e-05
-9.28599e-06
1.58101e-06
-2.48362e-05
-4.14255e-07
-2.64598e-05
-3.04159e-06
-1.14667e-06
1.19217e-05
-6.07107e-06
-1.32261e-06
1.81232e-05
-8.34898e-06
-4.55298e-07
1.79167e-05
-1.00737e-05
9.56242e-07
1.5241e-05
-1.15884e-05
2.49023e-06
1.1084e-05
-1.30687e-05
3.69538e-06
5.08012e-06
-1.42627e-05
4.04327e-06
-3.60908e-06
-1.38895e-05
3.09277e-06
-1.59279e-05
-9.47157e-06
1.16746e-06
-2.9306e-05
-3.35957e-07
-3.05191e-05
-3.40351e-06
-6.54976e-07
1.21703e-05
-6.99087e-06
-7.6766e-07
1.87758e-05
-9.60634e-06
-2.47805e-07
1.85944e-05
-1.12818e-05
5.91991e-07
1.57188e-05
-1.23767e-05
1.47659e-06
1.12726e-05
-1.32552e-05
2.12497e-06
4.94605e-06
-1.39806e-05
2.24156e-06
-4.07969e-06
-1.35607e-05
1.63569e-06
-1.69387e-05
-9.43247e-06
5.72651e-07
-3.09727e-05
-1.71083e-07
-3.20971e-05
-3.55864e-06
3.65664e-13
1.22214e-05
-7.37932e-06
2.34373e-13
1.89125e-05
-1.01019e-05
1.29862e-13
1.86989e-05
-1.16869e-05
1.3791e-13
1.57356e-05
-1.25346e-05
1.99277e-13
1.12128e-05
-1.31388e-05
2.29643e-13
4.83823e-06
-1.37268e-05
2.34428e-13
-4.23775e-06
-1.33948e-05
2.19611e-13
-1.72803e-05
-9.44643e-06
1.97774e-13
-3.15753e-05
1.6871e-13
-3.26824e-05
-3.55864e-06
6.54976e-07
1.22214e-05
-7.37932e-06
7.67661e-07
1.89125e-05
-1.01019e-05
2.47805e-07
1.86989e-05
-1.16869e-05
-5.91991e-07
1.57356e-05
-1.25346e-05
-1.47659e-06
1.12128e-05
-1.31388e-05
-2.12497e-06
4.83823e-06
-1.37268e-05
-2.24156e-06
-4.23775e-06
-1.33948e-05
-1.63569e-06
-1.72803e-05
-9.44643e-06
-5.7265e-07
-3.15753e-05
1.71084e-07
-3.26824e-05
-3.40351e-06
1.14667e-06
1.21703e-05
-6.99087e-06
1.32261e-06
1.87758e-05
-9.60634e-06
4.55298e-07
1.85944e-05
-1.12818e-05
-9.56242e-07
1.57188e-05
-1.23767e-05
-2.49023e-06
1.12726e-05
-1.32552e-05
-3.69538e-06
4.94605e-06
-1.39806e-05
-4.04327e-06
-4.07969e-06
-1.35607e-05
-3.09277e-06
-1.69387e-05
-9.43247e-06
-1.16746e-06
-3.09727e-05
3.35958e-07
-3.20971e-05
-3.04159e-06
1.26817e-06
1.19217e-05
-6.07107e-06
1.40906e-06
1.81232e-05
-8.34898e-06
5.21167e-07
1.79167e-05
-1.00737e-05
-9.31724e-07
1.5241e-05
-1.15884e-05
-2.57426e-06
1.1084e-05
-1.30687e-05
-3.99048e-06
5.08012e-06
-1.42627e-05
-4.60257e-06
-3.60908e-06
-1.38895e-05
-3.75953e-06
-1.59279e-05
-9.47157e-06
-1.58101e-06
-2.9306e-05
4.14255e-07
-3.05191e-05
-2.39695e-06
8.30027e-07
1.09031e-05
-4.42787e-06
8.41875e-07
1.57645e-05
-5.95156e-06
3.25332e-07
1.53181e-05
-7.41859e-06
-5.10759e-07
1.30514e-05
-9.23949e-06
-1.48954e-06
9.71768e-06
-1.14706e-05
-2.4263e-06
4.85284e-06
-1.35213e-05
-2.96752e-06
-2.4909e-06
-1.3657e-05
-2.58516e-06
-1.31349e-05
-9.28599e-06
-1.20399e-06
-2.48362e-05
2.9207e-07
-2.64598e-05
-1.23726e-06
7.03369e-06
-1.85771e-06
8.72944e-06
-2.21783e-06
7.99402e-06
-2.85136e-06
6.73231e-06
-4.14661e-06
5.23211e-06
-6.18244e-06
3.07984e-06
-8.41934e-06
-5.09725e-07
-9.22337e-06
-6.18681e-06
-6.50223e-06
-1.29503e-05
-1.50786e-05
-2.4821e-06
-1.0867e-06
1.06025e-05
-2.25532e-06
-1.07811e-06
9.58077e-06
-1.31522e-06
-3.96397e-07
7.45032e-06
-7.58969e-07
6.63488e-07
5.51257e-06
-1.23717e-06
1.89463e-06
3.81568e-06
-3.08559e-06
3.13412e-06
1.79415e-06
-6.14773e-06
4.02618e-06
-1.47377e-06
-8.67947e-06
3.69007e-06
-7.34513e-06
-7.66843e-06
1.63301e-06
-1.55944e-05
-1.00501e-06
-2.1742e-05
-4.04373e-06
-1.53028e-06
1.53904e-05
-4.72412e-06
-1.66194e-06
1.70287e-05
-3.94151e-06
-6.05484e-07
1.47446e-05
-2.98007e-06
1.04254e-06
1.17109e-05
-2.70508e-06
2.90185e-06
8.43547e-06
-3.6116e-06
4.5779e-06
4.31557e-06
-5.76294e-06
5.50095e-06
-1.81433e-06
-8.066e-06
4.617e-06
-1.17588e-05
-7.44982e-06
1.64443e-06
-2.54638e-05
-1.36729e-06
-3.35473e-05
-4.66093e-06
-1.30316e-06
1.63555e-05
-6.05304e-06
-1.47397e-06
1.93274e-05
-5.61039e-06
-5.03196e-07
1.73717e-05
-4.43908e-06
9.95635e-07
1.41166e-05
-3.36802e-06
2.60881e-06
1.0306e-05
-3.04463e-06
3.935e-06
5.39963e-06
-3.92263e-06
4.47165e-06
-1.70179e-06
-5.80439e-06
3.47833e-06
-1.29075e-05
-6.01909e-06
1.04312e-06
-2.849e-05
-1.00672e-06
-3.68988e-05
-4.92401e-06
-7.18071e-07
1.65092e-05
-6.67882e-06
-8.26902e-07
1.98835e-05
-6.38037e-06
-2.6452e-07
1.80573e-05
-5.0217e-06
5.93904e-07
1.47619e-05
-3.44708e-06
1.48728e-06
1.08195e-05
-2.45472e-06
2.17357e-06
5.71513e-06
-2.78406e-06
2.38049e-06
-1.6592e-06
-4.70043e-06
1.76153e-06
-1.33055e-05
-5.51762e-06
4.77162e-07
-2.95895e-05
-4.80753e-07
-3.81407e-05
-5.01604e-06
2.28699e-13
1.65194e-05
-6.90318e-06
1.15695e-13
1.99728e-05
-6.63266e-06
2.99303e-14
1.81639e-05
-5.158e-06
5.92592e-14
1.48548e-05
-3.35388e-06
1.16537e-13
1.08959e-05
-2.11458e-06
1.41488e-13
5.77249e-06
-2.31106e-06
1.41726e-13
-1.66077e-06
-4.36035e-06
1.61957e-13
-1.34695e-05
-5.4443e-06
1.74998e-13
-3.00142e-05
1.70108e-13
-3.86074e-05
-5.01604e-06
7.18072e-07
1.65194e-05
-6.90318e-06
8.26902e-07
1.99728e-05
-6.63266e-06
2.64521e-07
1.81639e-05
-5.158e-06
-5.93904e-07
1.48548e-05
-3.35388e-06
-1.48728e-06
1.08959e-05
-2.11458e-06
-2.17357e-06
5.77249e-06
-2.31106e-06
-2.38049e-06
-1.66077e-06
-4.36035e-06
-1.76153e-06
-1.34695e-05
-5.4443e-06
-4.77162e-07
-3.00142e-05
4.80753e-07
-3.86074e-05
-4.92401e-06
1.30316e-06
1.65092e-05
-6.67882e-06
1.47397e-06
1.98835e-05
-6.38037e-06
5.03197e-07
1.80573e-05
-5.0217e-06
-9.95635e-07
1.47619e-05
-3.44708e-06
-2.60881e-06
1.08195e-05
-2.45472e-06
-3.935e-06
5.71513e-06
-2.78406e-06
-4.47165e-06
-1.6592e-06
-4.70043e-06
-3.47833e-06
-1.33055e-05
-5.51762e-06
-1.04312e-06
-2.95895e-05
1.00672e-06
-3.81407e-05
-4.66093e-06
1.53028e-06
1.63555e-05
-6.05304e-06
1.66194e-06
1.93274e-05
-5.61039e-06
6.05484e-07
1.73717e-05
-4.43908e-06
-1.04254e-06
1.41166e-05
-3.36802e-06
-2.90185e-06
1.0306e-05
-3.04463e-06
-4.5779e-06
5.39963e-06
-3.92263e-06
-5.50095e-06
-1.70179e-06
-5.80439e-06
-4.617e-06
-1.29075e-05
-6.01909e-06
-1.64443e-06
-2.849e-05
1.36729e-06
-3.68988e-05
-4.04373e-06
1.0867e-06
1.53904e-05
-4.72412e-06
1.07811e-06
1.70287e-05
-3.94151e-06
3.96397e-07
1.47446e-05
-2.98007e-06
-6.63488e-07
1.17109e-05
-2.70508e-06
-1.89463e-06
8.43547e-06
-3.6116e-06
-3.13412e-06
4.31557e-06
-5.76294e-06
-4.02618e-06
-1.81433e-06
-8.066e-06
-3.69007e-06
-1.17588e-05
-7.44982e-06
-1.63301e-06
-2.54638e-05
1.00501e-06
-3.35473e-05
-2.4821e-06
1.06025e-05
-2.25532e-06
9.58077e-06
-1.31522e-06
7.45032e-06
-7.58969e-07
5.51257e-06
-1.23717e-06
3.81568e-06
-3.08559e-06
1.79415e-06
-6.14773e-06
-1.47377e-06
-8.67947e-06
-7.34513e-06
-7.66843e-06
-1.55944e-05
-2.1742e-05
-2.67508e-06
-1.85759e-06
1.51352e-05
4.98031e-07
-1.9824e-06
8.39005e-06
4.52795e-06
-1.19699e-06
4.6174e-06
7.38984e-06
-1.45624e-07
2.79631e-06
8.58298e-06
1.09364e-06
1.5289e-06
7.66255e-06
2.3815e-06
3.33074e-07
4.35623e-06
3.5549e-06
-1.72236e-06
-6.1511e-07
3.46054e-06
-5.83433e-06
-3.47037e-06
9.17185e-07
-1.36563e-05
-2.71224e-06
-2.25002e-05
-4.78154e-06
-2.23047e-06
2.05448e-05
-8.02007e-07
-2.67219e-06
1.3739e-05
5.10353e-06
-1.76848e-06
9.41054e-06
1.02471e-05
-3.02075e-07
6.72379e-06
1.39282e-05
1.36667e-06
4.48135e-06
1.54571e-05
3.009e-06
2.15916e-06
1.40193e-05
4.28136e-06
-1.10297e-06
9.30116e-06
3.85567e-06
-7.43577e-06
3.08584e-06
7.12238e-07
-1.90435e-05
-2.75018e-06
-3.04236e-05
-5.54762e-06
-1.70669e-06
2.13793e-05
-1.76855e-06
-2.16756e-06
1.50437e-05
4.29071e-06
-1.44581e-06
1.09898e-05
1.01119e-05
-2.46871e-07
8.24019e-06
1.49292e-05
1.10081e-06
5.75458e-06
1.79394e-05
2.35432e-06
3.04414e-06
1.78888e-05
3.20781e-06
-5.77701e-07
1.36858e-05
2.76536e-06
-7.61414e-06
5.70288e-06
4.50387e-07
-2.02452e-05
-1.72004e-06
-3.22261e-05
-5.74308e-06
-8.86105e-07
2.14317e-05
-2.10674e-06
-1.15342e-06
1.52331e-05
3.95033e-06
-7.59526e-07
1.13139e-05
9.97975e-06
-1.15584e-07
8.60114e-06
1.52105e-05
5.98549e-07
6.09103e-06
1.87497e-05
1.23817e-06
3.29208e-06
1.91022e-05
1.63415e-06
-4.38008e-07