/*--------------------------------*- C++ -*----------------------------------*\
  =========                 |
  \\      /  F ield         | OpenFOAM: The Open Source CFD Toolbox
   \\    /   O peration     | Website:  https://openfoam.org
    \\  /    A nd           | Version:  9
     \\/     M anipulation  |
\*---------------------------------------------------------------------------*/
FoamFile
{
    format      ascii;
    class       surfaceScalarField;
    location    "0.21";
    object      phi;
}
// * * * * * * * * * * * * * * * * * * * * * * * * * * * * * * * * * * * * * //

dimensions      [0 3 -1 0 0 0 0];

internalField   nonuniform List<scalar> 
2700
(
-1.00268e-07
-5.16388e-08
1.51904e-07
-3.76432e-07
-3.42637e-08
3.10428e-07
-6.91498e-07
-2.56022e-08
3.40669e-07
-9.62131e-07
-3.30876e-08
3.03721e-07
-1.12749e-06
-5.71969e-08
2.22559e-07
-1.13051e-06
-9.57549e-08
9.87699e-08
-9.31645e-07
-1.37603e-07
-6.12601e-08
-5.55478e-07
-1.58814e-07
-2.17353e-07
-1.49775e-07
-1.337e-07
-2.72003e-07
-3.64025e-08
-1.13373e-07
-2.09743e-07
-9.2834e-08
2.50939e-07
-7.31023e-07
-9.33609e-08
5.80377e-07
-1.3133e-06
-8.47521e-08
6.41432e-07
-1.79862e-06
-9.21483e-08
5.44373e-07
-2.0798e-06
-1.19537e-07
3.43522e-07
-2.06474e-06
-1.62884e-07
5.20667e-08
-1.69154e-06
-2.06983e-07
-3.03811e-07
-1.00831e-06
-2.2526e-07
-6.16786e-07
-2.83396e-07
-1.88139e-07
-6.70477e-07
-7.0428e-08
-2.49371e-07
-2.54478e-07
-8.88868e-08
2.50532e-07
-8.85041e-07
-1.04332e-07
6.41534e-07
-1.58518e-06
-9.97136e-08
7.15104e-07
-2.16362e-06
-1.02823e-07
5.89108e-07
-2.49342e-06
-1.19967e-07
3.30238e-07
-2.46419e-06
-1.48641e-07
-4.34763e-08
-2.00434e-06
-1.7737e-07
-4.89461e-07
-1.17639e-06
-1.86717e-07
-8.66497e-07
-3.14314e-07
-1.56677e-07
-8.93535e-07
-6.85711e-08
-3.16171e-07
-2.66669e-07
-5.20045e-08
2.29787e-07
-9.40526e-07
-6.52227e-08
6.34748e-07
-1.69024e-06
-6.34989e-08
7.13499e-07
-2.30854e-06
-6.39789e-08
5.79455e-07
-2.65892e-06
-7.10766e-08
3.01488e-07
-2.6224e-06
-8.38144e-08
-1.0134e-07
-2.12212e-06
-9.65929e-08
-5.81062e-07
-1.22885e-06
-9.99147e-08
-9.80067e-07
-3.1181e-07
-8.45028e-08
-9.89215e-07
-4.03181e-08
-3.40063e-07
-2.68313e-07
2.3775e-12
2.16306e-07
-9.55821e-07
1.5708e-12
6.22284e-07
-1.72264e-06
1.19437e-12
7.03323e-07
-2.35537e-06
9.31831e-13
5.68746e-07
-2.71348e-06
6.9025e-13
2.87029e-07
-2.67443e-06
4.67411e-13
-1.22858e-07
-2.1589e-06
2.49758e-13
-6.12129e-07
-1.2415e-06
2.35774e-14
-1.01731e-06
-3.06231e-07
-1.93924e-13
-1.01978e-06
-4.93915e-13
-3.46548e-07
-2.68313e-07
5.20092e-08
2.16306e-07
-9.55822e-07
6.52257e-08
6.22285e-07
-1.72265e-06
6.35012e-08
7.03323e-07
-2.35537e-06
6.39807e-08
5.68746e-07
-2.71348e-06
7.10779e-08
2.87029e-07
-2.67443e-06
8.38153e-08
-1.22858e-07
-2.1589e-06
9.65934e-08
-6.12129e-07
-1.2415e-06
9.99147e-08
-1.01731e-06
-3.06231e-07
8.45024e-08
-1.01978e-06
4.0317e-08
-3.46548e-07
-2.66669e-07
8.88914e-08
2.29787e-07
-9.40526e-07
1.04334e-07
6.34749e-07
-1.69024e-06
9.97156e-08
7.13499e-07
-2.30854e-06
1.02824e-07
5.79455e-07
-2.65892e-06
1.19969e-07
3.01487e-07
-2.6224e-06
1.48642e-07
-1.01341e-07
-2.12212e-06
1.7737e-07
-5.81063e-07
-1.22885e-06
1.86717e-07
-9.80067e-07
-3.1181e-07
1.56676e-07
-9.89215e-07
6.857e-08
-3.40063e-07
-2.54479e-07
9.28381e-08
2.50532e-07
-8.85042e-07
9.33613e-08
6.41535e-07
-1.58518e-06
8.47536e-08
7.15104e-07
-2.16362e-06
9.21497e-08
5.89108e-07
-2.49342e-06
1.19538e-07
3.30237e-07
-2.46419e-06
1.62884e-07
-4.3477e-08
-2.00434e-06
2.06983e-07
-4.89462e-07
-1.17639e-06
2.2526e-07
-8.66497e-07
-3.14314e-07
1.88139e-07
-8.93535e-07
7.04273e-08
-3.16171e-07
-2.09742e-07
5.16385e-08
2.50941e-07
-7.31023e-07
3.42618e-08
5.8038e-07
-1.31331e-06
2.56028e-08
6.41434e-07
-1.79862e-06
3.30882e-08
5.44373e-07
-2.0798e-06
5.71974e-08
3.43521e-07
-2.06474e-06
9.57555e-08
5.20661e-08
-1.69155e-06
1.37603e-07
-3.03812e-07
-1.00831e-06
1.58814e-07
-6.16787e-07
-2.83396e-07
1.33701e-07
-6.70478e-07
3.64028e-08
-2.49371e-07
-1.00267e-07
1.51905e-07
-3.76436e-07
3.10431e-07
-6.91502e-07
3.40668e-07
-9.62135e-07
3.0372e-07
-1.1275e-06
2.22559e-07
-1.13051e-06
9.877e-08
-9.31647e-07
-6.126e-08
-5.55479e-07
-2.17353e-07
-1.49776e-07
-2.72003e-07
-1.13372e-07
-2.52375e-07
-1.45194e-07
5.49473e-07
-7.69694e-07
-1.46011e-07
9.73759e-07
-1.32956e-06
-1.31837e-07
1.03237e-06
-1.80128e-06
-1.26706e-07
9.02151e-07
-2.08713e-06
-1.36867e-07
6.4527e-07
-2.09778e-06
-1.62003e-07
2.71419e-07
-1.76504e-06
-1.93307e-07
-2.00683e-07
-1.11207e-06
-2.01021e-07
-6.69304e-07
-3.64602e-07
-1.49072e-07
-8.70401e-07
-7.23263e-09
-4.70743e-07
-5.85115e-07
-2.11111e-07
9.01971e-07
-1.66618e-06
-2.49104e-07
1.76454e-06
-2.80305e-06
-2.34258e-07
1.88072e-06
-3.7269e-06
-2.24257e-07
1.56578e-06
-4.24975e-06
-2.34737e-07
9.64237e-07
-4.21952e-06
-2.65537e-07
1.25375e-07
-3.52324e-06
-3.01993e-07
-8.91401e-07
-2.2295e-06
-3.06049e-07
-1.8055e-06
-7.67131e-07
-2.34758e-07
-2.04716e-06
-5.40324e-08
-9.69703e-07
-7.39934e-07
-1.81565e-07
9.60921e-07
-2.09292e-06
-2.3413e-07
1.97955e-06
-3.50076e-06
-2.25098e-07
2.11378e-06
-4.62815e-06
-2.14073e-07
1.70632e-06
-5.24784e-06
-2.18686e-07
9.33873e-07
-5.18335e-06
-2.3985e-07
-1.33652e-07
-4.30182e-06
-2.63539e-07
-1.40944e-06
-2.70021e-06
-2.62891e-07
-2.51127e-06
-9.15678e-07
-2.07129e-07
-2.70569e-06
-7.04225e-08
-1.21546e-06
-7.92594e-07
-1.00377e-07
9.41193e-07
-2.25585e-06
-1.35746e-07
1.99962e-06
-3.77634e-06
-1.32008e-07
2.1409e-06
-4.98818e-06
-1.24825e-07
1.70204e-06
-5.64744e-06
-1.25336e-07
8.67405e-07
-5.56473e-06
-1.34423e-07
-2.89485e-07
-4.60083e-06
-1.44688e-07
-1.66381e-06
-2.86536e-06
-1.43121e-07
-2.83531e-06
-9.51024e-07
-1.14972e-07
-2.9957e-06
-4.59716e-08
-1.31554e-06
-8.04738e-07
1.69065e-12
9.20665e-07
-2.30306e-06
3.568e-13
1.98485e-06
-3.8616e-06
1.6557e-13
2.12986e-06
-5.10279e-06
4.07156e-13
1.68511e-06
-5.77636e-06
5.75985e-13
8.35259e-07
-5.68732e-06
6.51296e-13
-3.46327e-07
-4.69412e-06
6.48153e-13
-1.75002e-06
-2.91145e-06
5.95767e-13
-2.94309e-06
-9.54718e-07
3.60552e-13
-3.09149e-06
-6.24994e-14
-1.34724e-06
-8.04738e-07
1.0038e-07
9.20665e-07
-2.30305e-06
1.35746e-07
1.98486e-06
-3.8616e-06
1.32008e-07
2.12986e-06
-5.10279e-06
1.24825e-07
1.68511e-06
-5.77636e-06
1.25337e-07
8.35259e-07
-5.68732e-06
1.34424e-07
-3.46327e-07
-4.69412e-06
1.4469e-07
-1.75002e-06
-2.91145e-06
1.43122e-07
-2.94309e-06
-9.54718e-07
1.14973e-07
-3.09149e-06
4.59714e-08
-1.34724e-06
-7.92594e-07
1.81568e-07
9.41193e-07
-2.25585e-06
2.3413e-07
1.99962e-06
-3.77634e-06
2.25098e-07
2.1409e-06
-4.98818e-06
2.14074e-07
1.70204e-06
-5.64744e-06
2.18687e-07
8.67405e-07
-5.56473e-06
2.39851e-07
-2.89486e-07
-4.60083e-06
2.6354e-07
-1.66381e-06
-2.86536e-06
2.62892e-07
-2.83531e-06
-9.51025e-07
2.07129e-07
-2.9957e-06
7.04223e-08
-1.31554e-06
-7.39933e-07
2.11111e-07
9.60921e-07
-2.09292e-06
2.49103e-07
1.97955e-06
-3.50075e-06
2.34257e-07
2.11378e-06
-4.62815e-06
2.24258e-07
1.70632e-06
-5.24784e-06
2.34738e-07
9.33872e-07
-5.18335e-06
2.65538e-07
-1.33653e-07
-4.30182e-06
3.01994e-07
-1.40944e-06
-2.70021e-06
3.0605e-07
-2.51127e-06
-9.15678e-07
2.34759e-07
-2.70569e-06
5.40325e-08
-1.21546e-06
-5.85112e-07
1.45193e-07
9.01971e-07
-1.66618e-06
1.46009e-07
1.76454e-06
-2.80305e-06
1.31836e-07
1.88072e-06
-3.7269e-06
1.26707e-07
1.56578e-06
-4.24975e-06
1.36867e-07
9.64237e-07
-4.21952e-06
1.62004e-07
1.25374e-07
-3.52324e-06
1.93308e-07
-8.91402e-07
-2.2295e-06
2.01022e-07
-1.8055e-06
-7.67131e-07
1.49073e-07
-2.04716e-06
7.23287e-09
-9.69702e-07
-2.52373e-07
5.4947e-07
-7.69694e-07
9.7376e-07
-1.32956e-06
1.03237e-06
-1.80129e-06
9.02151e-07
-2.08713e-06
6.4527e-07
-2.09778e-06
2.7142e-07
-1.76505e-06
-2.00683e-07
-1.11207e-06
-6.69304e-07
-3.64602e-07
-8.704e-07
-4.70741e-07
-3.59384e-07
-2.27718e-07
1.13657e-06
-1.04285e-06
-2.46e-07
1.90322e-06
-1.76643e-06
-2.25573e-07
1.98153e-06
-2.38663e-06
-2.06601e-07
1.72896e-06
-2.79821e-06
-2.0254e-07
1.25939e-06
-2.88586e-06
-2.18669e-07
5.77742e-07
-2.53063e-06
-2.46629e-07
-3.09285e-07
-1.69451e-06
-2.52867e-07
-1.25256e-06
-6.18325e-07
-1.84024e-07
-1.76256e-06
1.33824e-08
-1.10245e-06
-8.64116e-07
-3.19667e-07
1.85804e-06
-2.35343e-06
-3.89621e-07
3.39747e-06
-3.88296e-06
-3.64737e-07
3.54942e-06
-5.14031e-06
-3.31794e-07
2.94832e-06
-5.91442e-06
-3.18632e-07
1.85443e-06
-6.00269e-06
-3.32007e-07
3.26986e-07
-5.20355e-06
-3.60788e-07
-1.57638e-06
-3.48291e-06
-3.61285e-07
-3.41773e-06
-1.31476e-06
-2.73146e-07
-4.1262e-06
-3.79278e-08
-2.23315e-06
-1.10991e-06
-2.65861e-07
2.01703e-06
-3.00133e-06
-3.48958e-07
3.83031e-06
-4.92153e-06
-3.30646e-07
3.99988e-06
-6.4732e-06
-2.98043e-07
3.22423e-06
-7.39877e-06
-2.80253e-07
1.82106e-06
-7.46386e-06
-2.84026e-07
-1.1654e-07
-6.42871e-06
-2.98024e-07
-2.50735e-06
-4.27148e-06
-2.93619e-07
-4.73617e-06
-1.59402e-06
-2.29366e-07
-5.42694e-06
-6.28521e-08
-2.78455e-06
-1.19685e-06
-1.43457e-07
2.01564e-06
-3.25251e-06
-1.96414e-07
3.90273e-06
-5.33504e-06
-1.87326e-07
4.08011e-06
-7.00838e-06
-1.67561e-07
3.2449e-06
-7.99621e-06
-1.54899e-07
1.72988e-06
-8.04724e-06
-1.53318e-07
-3.69163e-07
-6.9088e-06
-1.57286e-07
-2.94299e-06
-4.56271e-06
-1.53561e-07
-5.32145e-06
-1.67663e-06
-1.22979e-07
-5.98817e-06
-4.30036e-08
-3.01202e-06
-1.21784e-06
1.36203e-12
1.99505e-06
-3.32521e-06
2.34578e-14
3.89581e-06
-5.46171e-06
-2.12372e-13
4.07904e-06
-7.17675e-06
1.12091e-13
3.23259e-06
-8.18683e-06
2.78514e-13
1.69044e-06
-8.2339e-06
3.21189e-13
-4.5257e-07
-7.06034e-06
3.27856e-13
-3.08086e-06
-4.64931e-06
2.7417e-13
-5.50768e-06
-1.6946e-06
1.00945e-13
-6.16918e-06
8.91009e-15
-3.08485e-06
-1.21784e-06
1.4346e-07
1.99505e-06
-3.32521e-06
1.96414e-07
3.89581e-06
-5.46171e-06
1.87325e-07
4.07904e-06
-7.17675e-06
1.67561e-07
3.23259e-06
-8.18683e-06
1.549e-07
1.69044e-06
-8.2339e-06
1.53318e-07
-4.5257e-07
-7.06034e-06
1.57286e-07
-3.08086e-06
-4.64931e-06
1.53561e-07
-5.50768e-06
-1.6946e-06
1.22979e-07
-6.16918e-06
4.30036e-08
-3.08485e-06
-1.19685e-06
2.65864e-07
2.01564e-06
-3.25251e-06
3.48957e-07
3.90273e-06
-5.33504e-06
3.30646e-07
4.08011e-06
-7.00838e-06
2.98044e-07
3.2449e-06
-7.99621e-06
2.80254e-07
1.72988e-06
-8.04724e-06
2.84027e-07
-3.69163e-07
-6.9088e-06
2.98025e-07
-2.94299e-06
-4.56271e-06
2.93619e-07
-5.32145e-06
-1.67663e-06
2.29366e-07
-5.98817e-06
6.2852e-08
-3.01202e-06
-1.10991e-06
3.19669e-07
2.01702e-06
-3.00133e-06
3.8962e-07
3.83031e-06
-4.92153e-06
3.64737e-07
3.99989e-06
-6.4732e-06
3.31795e-07
3.22423e-06
-7.39877e-06
3.18632e-07
1.82106e-06
-7.46386e-06
3.32008e-07
-1.16541e-07
-6.42871e-06
3.60788e-07
-2.50735e-06
-4.27148e-06
3.61285e-07
-4.73617e-06
-1.59402e-06
2.73146e-07
-5.42694e-06
3.79277e-08
-2.78455e-06
-8.64115e-07
2.27718e-07
1.85804e-06
-2.35342e-06
2.45999e-07
3.39747e-06
-3.88296e-06
2.25573e-07
3.54942e-06
-5.14031e-06
2.06601e-07
2.94832e-06
-5.91442e-06
2.02541e-07
1.85443e-06
-6.00269e-06
2.1867e-07
3.26985e-07
-5.20355e-06
2.46629e-07
-1.57638e-06
-3.48291e-06
2.52867e-07
-3.41773e-06
-1.31476e-06
1.84023e-07
-4.12619e-06
-1.33828e-08
-2.23315e-06
-3.59384e-07
1.13657e-06
-1.04285e-06
1.90322e-06
-1.76643e-06
1.98153e-06
-2.38663e-06
1.72896e-06
-2.79821e-06
1.25939e-06
-2.88586e-06
5.77742e-07
-2.53063e-06
-3.09285e-07
-1.69451e-06
-1.25256e-06
-6.18325e-07
-1.76256e-06
-1.10245e-06
-4.74668e-07
-3.18771e-07
1.93001e-06
-1.32399e-06
-3.50639e-07
3.10319e-06
-2.20911e-06
-3.17733e-07
3.18438e-06
-2.99822e-06
-2.77785e-07
2.79586e-06
-3.59992e-06
-2.52037e-07
2.11312e-06
-3.87541e-06
-2.51764e-07
1.10499e-06
-3.62059e-06
-2.75745e-07
-2.88358e-07
-2.643e-06
-2.94471e-07
-1.93568e-06
-1.1056e-06
-2.32489e-07
-3.06747e-06
1.27152e-08
-2.22077e-06
-1.14753e-06
-4.40542e-07
3.12733e-06
-3.03706e-06
-5.38331e-07
5.4747e-06
-4.95369e-06
-4.91386e-07
5.6397e-06
-6.58675e-06
-4.19329e-07
4.72293e-06
-7.73826e-06
-3.63085e-07
3.117e-06
-8.15663e-06
-3.38768e-07
8.32353e-07
-7.48142e-06
-3.49895e-07
-2.17744e-06
-5.40985e-06
-3.61083e-07
-5.42269e-06
-2.2897e-06
-2.96155e-07
-7.18267e-06
-3.96284e-08
-4.47051e-06
-1.47728e-06
-3.60078e-07
3.41384e-06
-3.89148e-06
-4.70102e-07
6.17628e-06
-6.31523e-06
-4.30572e-07
6.36282e-06
-8.34379e-06
-3.59416e-07
5.19288e-06
-9.72884e-06
-2.97486e-07
3.14051e-06
-1.0182e-05
-2.57153e-07
2.55003e-07
-9.26274e-06
-2.5316e-07
-3.52335e-06
-6.64059e-06
-2.55309e-07
-7.46409e-06
-2.77768e-06
-2.19476e-07
-9.36653e-06
-6.14466e-08
-5.54042e-06
-1.59271e-06
-1.91592e-07
3.43987e-06
-4.21921e-06
-2.59993e-07
6.31912e-06
-6.85197e-06
-2.38446e-07
6.52075e-06
-9.04284e-06
-1.95823e-07
5.27217e-06
-1.05198e-05
-1.57186e-07
3.06658e-06
-1.09942e-05
-1.32526e-07
-1.94634e-08
-9.96584e-06
-1.21367e-07
-4.10311e-06
-7.10791e-06
-1.20462e-07
-8.31423e-06
-2.94065e-06
-1.08006e-07
-1.02669e-05
-4.02208e-08
-5.9739e-06
-1.61946e-06
1.07666e-12
3.42291e-06
-4.31101e-06
-7.3029e-14
6.32738e-06
-7.01172e-06
-3.25642e-13
6.5413e-06
-9.25737e-06
-1.30743e-13
5.28241e-06
-1.07698e-05
-1.26463e-13
3.04564e-06
-1.12497e-05
-1.5062e-13
-1.05141e-07
-1.01901e-05
-9.99441e-14
-4.26184e-06
-7.2541e-06
-5.96421e-14
-8.56415e-06
-2.98626e-06
5.25707e-14
-1.0545e-05
9.17436e-14
-6.11132e-06
-1.61946e-06
1.91594e-07
3.42291e-06
-4.31101e-06
2.59993e-07
6.32738e-06
-7.01172e-06
2.38445e-07
6.5413e-06
-9.25737e-06
1.95823e-07
5.28241e-06
-1.07698e-05
1.57186e-07
3.04564e-06
-1.12497e-05
1.32526e-07
-1.05141e-07
-1.01901e-05
1.21367e-07
-4.26184e-06
-7.2541e-06
1.20462e-07
-8.56415e-06
-2.98626e-06
1.08006e-07
-1.0545e-05
4.0221e-08
-6.11132e-06
-1.59271e-06
3.6008e-07
3.43987e-06
-4.21921e-06
4.70102e-07
6.31912e-06
-6.85197e-06
4.30572e-07
6.52075e-06
-9.04284e-06
3.59416e-07
5.27217e-06
-1.05198e-05
2.97486e-07
3.06658e-06
-1.09942e-05
2.57153e-07
-1.94636e-08
-9.96584e-06
2.5316e-07
-4.10311e-06
-7.10791e-06
2.55309e-07
-8.31423e-06
-2.94065e-06
2.19476e-07
-1.02669e-05
6.14468e-08
-5.9739e-06
-1.47728e-06
4.40543e-07
3.41384e-06
-3.89148e-06
5.3833e-07
6.17628e-06
-6.31523e-06
4.91386e-07
6.36282e-06
-8.34379e-06
4.19329e-07
5.19288e-06
-9.72884e-06
3.63085e-07
3.14051e-06
-1.0182e-05
3.38767e-07
2.55003e-07
-9.26274e-06
3.49895e-07
-3.52335e-06
-6.64059e-06
3.61082e-07
-7.46409e-06
-2.77768e-06
2.96155e-07
-9.36652e-06
3.96283e-08
-5.54041e-06
-1.14752e-06
3.18771e-07
3.12733e-06
-3.03706e-06
3.50639e-07
5.4747e-06
-4.95369e-06
3.17733e-07
5.6397e-06
-6.58675e-06
2.77785e-07
4.72293e-06
-7.73826e-06
2.52038e-07
3.117e-06
-8.15663e-06
2.51764e-07
8.32352e-07
-7.48142e-06
2.75745e-07
-2.17744e-06
-5.40985e-06
2.9447e-07
-5.42269e-06
-2.2897e-06
2.32488e-07
-7.18267e-06
-1.27154e-08
-4.47051e-06
-4.74668e-07
1.93001e-06
-1.32399e-06
3.10319e-06
-2.20911e-06
3.18438e-06
-2.99823e-06
2.79586e-06
-3.59992e-06
2.11312e-06
-3.87541e-06
1.10499e-06
-3.62059e-06
-2.88357e-07
-2.643e-06
-1.93568e-06
-1.1056e-06
-3.06747e-06
-2.22077e-06
-6.49446e-07
-4.28499e-07
3.00796e-06
-1.68537e-06
-4.65955e-07
4.60507e-06
-2.72806e-06
-3.99363e-07
4.62643e-06
-3.69873e-06
-3.08148e-07
4.07467e-06
-4.55853e-06
-2.22205e-07
3.19513e-06
-5.16837e-06
-1.59834e-07
1.87466e-06
-5.21112e-06
-1.35672e-07
-1.09938e-07
-4.22733e-06
-1.73728e-07
-2.74574e-06
-2.07865e-06
-1.9658e-07
-5.01957e-06
-1.90619e-08
-4.28035e-06
-1.52731e-06
-5.81782e-07
4.80793e-06
-3.86232e-06
-6.97409e-07
8.04116e-06
-6.17486e-06
-5.96351e-07
8.14923e-06
-8.21941e-06
-4.3733e-07
6.89666e-06
-9.86743e-06
-2.774e-07
4.82021e-06
-1.08403e-05
-1.4805e-07
1.79343e-06
-1.05953e-05
-7.20903e-08
-2.486e-06
-8.38375e-06
-9.99594e-08
-7.70802e-06
-4.06942e-06
-1.7196e-07
-1.15216e-05
-6.60092e-08
-8.49298e-06
-1.94574e-06
-4.67664e-07
5.24547e-06
-4.9319e-06
-5.96828e-07
9.06186e-06
-7.87143e-06
-5.08589e-07
9.21459e-06
-1.04198e-05
-3.57172e-07
7.66106e-06
-1.23992e-05
-1.99514e-07
5.04206e-06
-1.34569e-05
-6.70229e-08
1.23168e-06
-1.29851e-05
1.95022e-08
-4.08674e-06
-1.01401e-05
4.32634e-09
-1.04134e-05
-4.85303e-06
-8.12817e-08
-1.47443e-05
-6.69256e-08
-1.03925e-05
-2.08527e-06
-2.45712e-07
5.30319e-06
-5.32766e-06
-3.25422e-07
9.29011e-06
-8.52077e-06
-2.76418e-07
9.48169e-06
-1.12734e-05
-1.88056e-07
7.85567e-06
-1.33881e-05
-9.4118e-08
5.07587e-06
-1.44711e-05
-1.25575e-08
1.00907e-06
-1.39058e-05
3.7705e-08
-4.68654e-06
-1.08013e-05
2.98009e-08
-1.14443e-05
-5.12971e-06
-2.54313e-08
-1.59943e-05
-3.70985e-08
-1.11334e-05
-2.11395e-06
8.30218e-13
5.29115e-06
-5.43069e-06
-6.15531e-14
9.3187e-06
-8.70302e-06
-4.11523e-13
9.53721e-06
-1.15227e-05
-4.24773e-13
7.91404e-06
-1.36838e-05
-5.13765e-13
5.11258e-06
-1.47901e-05
-4.85548e-13
9.88673e-07
-1.42021e-05
-1.80336e-13
-4.81214e-06
-1.10175e-05
9.11128e-14
-1.1719e-05
-5.21961e-06
3.95809e-13
-1.63683e-05
2.2267e-13
-1.1368e-05
-2.11395e-06
2.45714e-07
5.29115e-06
-5.43069e-06
3.25421e-07
9.3187e-06
-8.70302e-06
2.76417e-07
9.53721e-06
-1.15227e-05
1.88055e-07
7.91404e-06
-1.36838e-05
9.41172e-08
5.11258e-06
-1.47901e-05
1.25568e-08
9.88673e-07
-1.42021e-05
-3.77052e-08
-4.81214e-06
-1.10175e-05
-2.98006e-08
-1.1719e-05
-5.21961e-06
2.54321e-08
-1.63683e-05
3.7099e-08
-1.1368e-05
-2.08527e-06
4.67665e-07
5.30319e-06
-5.32766e-06
5.96828e-07
9.29011e-06
-8.52077e-06
5.08589e-07
9.48169e-06
-1.12734e-05
3.57171e-07
7.85567e-06
-1.33881e-05
1.99514e-07
5.07587e-06
-1.44711e-05
6.70225e-08
1.00907e-06
-1.39058e-05
-1.9502e-08
-4.68654e-06
-1.08013e-05
-4.32588e-09
-1.14443e-05
-5.12971e-06
8.12825e-08
-1.59943e-05
6.69261e-08
-1.11334e-05
-1.94574e-06
5.81783e-07
5.24546e-06
-4.9319e-06
6.97408e-07
9.06186e-06
-7.87143e-06
5.96351e-07
9.21459e-06
-1.04198e-05
4.3733e-07
7.66106e-06
-1.23992e-05
2.77399e-07
5.04206e-06
-1.34569e-05
1.4805e-07
1.23168e-06
-1.29851e-05
7.20905e-08
-4.08674e-06
-1.01401e-05
9.99598e-08
-1.04134e-05
-4.85303e-06
1.71961e-07
-1.47443e-05
6.60093e-08
-1.03925e-05
-1.52731e-06
4.285e-07
4.80793e-06
-3.86232e-06
4.65955e-07
8.04116e-06
-6.17486e-06
3.99363e-07
8.14923e-06
-8.21941e-06
3.08148e-07
6.89666e-06
-9.86743e-06
2.22205e-07
4.82021e-06
-1.08403e-05
1.59833e-07
1.79343e-06
-1.05953e-05
1.35672e-07
-2.486e-06
-8.38375e-06
1.73728e-07
-7.70802e-06
-4.06942e-06
1.9658e-07
-1.15216e-05
1.90624e-08
-8.49298e-06
-6.49446e-07
3.00796e-06
-1.68538e-06
4.60507e-06
-2.72806e-06
4.62643e-06
-3.69873e-06
4.07467e-06
-4.55854e-06
3.19513e-06
-5.16837e-06
1.87466e-06
-5.21112e-06
-1.09937e-07
-4.22733e-06
-2.74574e-06
-2.07865e-06
-5.01956e-06
-4.28035e-06
-9.57781e-07
-5.65341e-07
4.53108e-06
-2.17192e-06
-5.841e-07
6.40331e-06
-3.28398e-06
-4.30624e-07
6.16912e-06
-4.34792e-06
-2.13926e-07
5.35254e-06
-5.44691e-06
3.2457e-08
4.26166e-06
-6.51479e-06
2.6939e-07
2.67315e-06
-7.13471e-06
4.41466e-07
6.85133e-08
-6.49555e-06
3.8737e-07
-3.77228e-06
-3.79731e-06
1.24056e-07
-7.84186e-06
-8.91468e-08
-7.98851e-06
-2.09445e-06
-7.48621e-07
7.08566e-06
-4.86841e-06
-8.54364e-07
1.10854e-05
-7.42948e-06
-6.29343e-07
1.0909e-05
-9.7027e-06
-2.8074e-07
9.2367e-06
-1.17201e-05
1.18863e-07
6.75125e-06
-1.32975e-05
5.16676e-07
3.12346e-06
-1.37889e-05
8.01964e-07
-2.35502e-06
-1.19536e-05
7.4873e-07
-9.90476e-06
-6.70531e-06
3.07302e-07
-1.69531e-05
-1.15409e-07
-1.5172e-05
-2.59913e-06
-5.8966e-07
7.68564e-06
-6.13751e-06
-7.18562e-07
1.24644e-05
-9.41111e-06
-5.27716e-07
1.23866e-05
-1.22344e-05
-2.15209e-07
1.04188e-05
-1.4585e-05
1.45523e-07
7.36595e-06
-1.62042e-05
5.0066e-07
2.86695e-06
-1.64118e-05
7.46988e-07
-3.82421e-06
-1.39173e-05
6.97925e-07
-1.28571e-05
-7.66797e-06
3.05238e-07
-2.09915e-05
-8.02268e-08
-1.80957e-05
-2.75108e-06
-3.05486e-07
7.7701e-06
-6.57436e-06
-3.87125e-07
1.27819e-05
-1.01249e-05
-2.83471e-07
1.2788e-05
-1.3162e-05
-1.08401e-07
1.07859e-05
-1.56367e-05
9.36686e-08
7.60238e-06
-1.72616e-05
2.90281e-07
2.84438e-06
-1.73551e-05
4.20822e-07
-4.26691e-06
-1.4616e-05
3.8955e-07
-1.38749e-05
-8.01212e-06
1.74144e-07
-2.24671e-05
-3.51407e-08
-1.91906e-05
-2.77437e-06
5.79081e-13
7.76003e-06
-6.67229e-06
-2.17775e-14
1.28295e-05
-1.0304e-05
-4.51909e-13
1.28854e-05
-1.34097e-05
-5.72743e-13
1.09114e-05
-1.59328e-05
-6.46423e-13
7.72935e-06
-1.75793e-05
-4.21612e-13
2.92539e-06
-1.76614e-05
-1.26092e-15
-4.30918e-06
-1.48627e-05
1.40666e-13
-1.41281e-05
-8.14357e-06
2.15568e-13
-2.29133e-05
4.2969e-13
-1.95467e-05
-2.77437e-06
3.05487e-07
7.76003e-06
-6.67229e-06
3.87125e-07
1.28295e-05
-1.0304e-05
2.8347e-07
1.28854e-05
-1.34097e-05
1.084e-07
1.09114e-05
-1.59328e-05
-9.36696e-08
7.72935e-06
-1.75793e-05
-2.90282e-07
2.92539e-06
-1.76614e-05
-4.20822e-07
-4.30918e-06
-1.48627e-05
-3.89549e-07
-1.41281e-05
-8.14357e-06
-1.74144e-07
-2.29133e-05
3.51415e-08
-1.95467e-05
-2.75108e-06
5.89661e-07
7.7701e-06
-6.57436e-06
7.18562e-07
1.27819e-05
-1.01249e-05
5.27715e-07
1.2788e-05
-1.3162e-05
2.15208e-07
1.07859e-05
-1.56367e-05
-1.45524e-07
7.60238e-06
-1.72616e-05
-5.0066e-07
2.84438e-06
-1.73551e-05
-7.46988e-07
-4.26691e-06
-1.4616e-05
-6.97924e-07
-1.38749e-05
-8.01212e-06
-3.05237e-07
-2.24671e-05
8.02272e-08
-1.91906e-05
-2.59913e-06
7.48622e-07
7.68564e-06
-6.13751e-06
8.54364e-07
1.24644e-05
-9.41111e-06
6.29343e-07
1.23866e-05
-1.22344e-05
2.80739e-07
1.04188e-05
-1.4585e-05
-1.18864e-07
7.36595e-06
-1.62042e-05
-5.16676e-07
2.86695e-06
-1.64118e-05
-8.01963e-07
-3.82421e-06
-1.39173e-05
-7.48729e-07
-1.28571e-05
-7.66797e-06
-3.07301e-07
-2.09915e-05
1.15409e-07
-1.80957e-05
-2.09445e-06
5.65342e-07
7.08566e-06
-4.86841e-06
5.841e-07
1.10854e-05
-7.42948e-06
4.30624e-07
1.0909e-05
-9.7027e-06
2.13926e-07
9.23669e-06
-1.17201e-05
-3.24572e-08
6.75124e-06
-1.32975e-05
-2.6939e-07
3.12346e-06
-1.37889e-05
-4.41466e-07
-2.35502e-06
-1.19536e-05
-3.8737e-07
-9.90476e-06
-6.70531e-06
-1.24055e-07
-1.69531e-05
8.91468e-08
-1.5172e-05
-9.57782e-07
4.53108e-06
-2.17192e-06
6.40331e-06
-3.28398e-06
6.16912e-06
-4.34792e-06
5.35254e-06
-5.44691e-06
4.26166e-06
-6.5148e-06
2.67315e-06
-7.13471e-06
6.85133e-08
-6.49555e-06
-3.77228e-06
-3.79731e-06
-7.84186e-06
-7.98851e-06
-1.59529e-06
-7.47476e-07
6.87385e-06
-2.81379e-06
-7.06275e-07
8.32808e-06
-3.66535e-06
-3.7214e-07
7.39282e-06
-4.48696e-06
7.84022e-08
6.09574e-06
-5.56062e-06
6.01168e-07
4.73415e-06
-7.00324e-06
1.17427e-06
2.94151e-06
-8.46989e-06
1.64676e-06
-1.11607e-07
-8.7635e-06
1.62037e-06
-5.09904e-06
-6.07735e-06
8.70661e-07
-1.13987e-05
-1.9056e-07
-1.38753e-05
-3.038e-06
-9.55487e-07
1.03317e-05
-5.97989e-06
-1.00813e-06
1.43291e-05
-8.1895e-06
-5.53463e-07
1.33e-05
-9.96892e-06
1.13532e-07
1.0981e-05
-1.16486e-05
9.00827e-07
8.13126e-06
-1.33199e-05
1.73068e-06
4.2384e-06
-1.45351e-05
2.35794e-06
-1.85107e-06
-1.38782e-05
2.25863e-06
-1.11999e-05
-9.10578e-06
1.15342e-06
-2.20083e-05
-2.45697e-07
-2.42227e-05
-3.59768e-06
-7.32617e-07
1.10604e-05
-7.35307e-06
-8.34797e-07
1.60465e-05
-1.02405e-05
-4.69697e-07
1.51902e-05
-1.24283e-05
9.51974e-08
1.2625e-05
-1.41888e-05
7.60244e-07
9.26702e-06
-1.55961e-05
1.44233e-06
4.56268e-06
-1.62855e-05
1.91793e-06
-2.69485e-06
-1.50194e-05
1.78458e-06
-1.36491e-05
-9.68429e-06
8.70039e-07
-2.60432e-05
-1.70296e-07
-2.78554e-05
-3.73531e-06
-3.73346e-07
1.11461e-05
-7.76632e-06
-4.45462e-07
1.64236e-05
-1.09016e-05
-2.54285e-07
1.57079e-05
-1.32345e-05
5.0082e-08
1.31639e-05
-1.50088e-05
4.08075e-07
9.72884e-06
-1.6298e-05
7.67262e-07
4.80865e-06
-1.67972e-05
1.00398e-06
-2.85371e-06
-1.5363e-05
9.16231e-07
-1.44408e-05
-9.90786e-06
4.36992e-07
-2.74892e-05
-7.28348e-08
-2.9196e-05
-3.74115e-06
2.7985e-13
1.11278e-05
-7.83021e-06
-4.09644e-14
1.64731e-05
-1.10296e-05
-5.52233e-13
1.58306e-05
-1.34085e-05
-7.86732e-13
1.33403e-05
-1.52011e-05
-7.89649e-13
9.93001e-06
-1.64862e-05
-3.85538e-13
4.97776e-06
-1.69743e-05
-4.82544e-14
-2.81709e-06
-1.55316e-05
-3.22465e-14
-1.46546e-05
-1.00397e-05
1.87904e-13
-2.79683e-05
5.05556e-13
-2.96593e-05
-3.74115e-06
3.73347e-07
1.11278e-05
-7.83021e-06
4.45461e-07
1.64731e-05
-1.10296e-05
2.54284e-07
1.58306e-05
-1.34085e-05
-5.00835e-08
1.33403e-05
-1.52011e-05
-4.08077e-07
9.93001e-06
-1.64862e-05
-7.67263e-07
4.97776e-06
-1.69743e-05
-1.00398e-06
-2.81709e-06
-1.55316e-05
-9.16231e-07
-1.46546e-05
-1.00397e-05
-4.36991e-07
-2.79683e-05
7.28356e-08
-2.96593e-05
-3.73531e-06
7.32618e-07
1.11461e-05
-7.76632e-06
8.34797e-07
1.64236e-05
-1.09016e-05
4.69696e-07
1.57079e-05
-1.32345e-05
-9.51986e-08
1.31639e-05
-1.50088e-05
-7.60245e-07
9.72884e-06
-1.6298e-05
-1.44233e-06
4.80865e-06
-1.67972e-05
-1.91793e-06
-2.85371e-06
-1.5363e-05
-1.78458e-06
-1.44408e-05
-9.90786e-06
-8.70039e-07
-2.74892e-05
1.70296e-07
-2.9196e-05
-3.59768e-06
9.55487e-07
1.10604e-05
-7.35307e-06
1.00813e-06
1.60465e-05
-1.02405e-05
5.53462e-07
1.51902e-05
-1.24283e-05
-1.13533e-07
1.2625e-05
-1.41888e-05
-9.00827e-07
9.26702e-06
-1.55961e-05
-1.73068e-06
4.56268e-06
-1.62855e-05
-2.35794e-06
-2.69485e-06
-1.50194e-05
-2.25863e-06
-1.36491e-05
-9.68429e-06
-1.15342e-06
-2.60432e-05
2.45697e-07
-2.78554e-05
-3.038e-06
7.47477e-07
1.03317e-05
-5.97989e-06
7.06275e-07
1.43291e-05
-8.1895e-06
3.7214e-07
1.33e-05
-9.96892e-06
-7.84025e-08
1.0981e-05
-1.16486e-05
-6.01168e-07
8.13126e-06
-1.33199e-05
-1.17427e-06
4.2384e-06
-1.45351e-05
-1.64676e-06
-1.85107e-06
-1.38782e-05
-1.62037e-06
-1.11999e-05
-9.10578e-06
-8.70661e-07
-2.20083e-05
1.9056e-07
-2.42227e-05
-1.59529e-06
6.87385e-06
-2.81379e-06
8.32808e-06
-3.66535e-06
7.39282e-06
-4.48696e-06
6.09574e-06
-5.56062e-06
4.73415e-06
-7.00325e-06
2.94151e-06
-8.46989e-06
-1.11607e-07
-8.7635e-06
-5.09904e-06
-6.07735e-06
-1.13987e-05
-1.38753e-05
-2.85349e-06
-1.02839e-06
1.07557e-05
-3.30226e-06
-9.04326e-07
9.68118e-06
-2.99909e-06
-3.27953e-07
7.41761e-06
-2.78618e-06
4.06867e-07
5.47597e-06
-3.18733e-06
1.23379e-06
3.90152e-06
-4.52817e-06
2.15661e-06
2.12573e-06
-6.81822e-06
2.99924e-06
-8.20802e-07
-8.68959e-06
3.05058e-06
-6.27825e-06
-7.48315e-06
1.66509e-06
-1.42702e-05
-6.47251e-07
-2.07112e-05
-4.84495e-06
-1.25632e-06
1.54046e-05
-6.67528e-06
-1.25873e-06
1.65138e-05
-6.8702e-06
-5.31265e-07
1.36982e-05
-6.54133e-06
4.69051e-07
1.05899e-05
-6.41367e-06
1.62442e-06
7.61296e-06
-6.9638e-06
2.8504e-06
4.09473e-06
-8.34017e-06
3.84452e-06
-1.31998e-06
-9.62473e-06
3.70712e-06
-1.05719e-05
-8.04698e-06
1.76578e-06
-2.36867e-05
-8.42109e-07
-3.20748e-05
-5.47751e-06
-9.3117e-07
1.62128e-05
-8.00343e-06
-1.02188e-06
1.83356e-05
-8.57514e-06
-4.7315e-07
1.57038e-05
-8.21269e-06
3.28148e-07
1.24034e-05
-7.62638e-06
1.25485e-06
9.05027e-06
-7.35859e-06
2.21409e-06
4.9312e-06
-7.78417e-06
2.9247e-06
-1.34944e-06
-8.56868e-06
2.71283e-06
-1.18703e-05
-7.26894e-06
1.19764e-06
-2.67748e-05
-5.64799e-07
-3.54016e-05
-5.58636e-06
-4.65187e-07
1.62665e-05
-8.31543e-06
-5.39117e-07
1.86699e-05
-9.01988e-06
-2.63745e-07
1.6203e-05
-8.64584e-06
1.5308e-07
1.29649e-05
-7.88255e-06
6.38083e-07
9.58232e-06
-7.30709e-06
1.13193e-06
5.31535e-06
-7.43315e-06
1.47885e-06
-1.28179e-06
-8.17633e-06
1.34329e-06
-1.23281e-05
-7.12166e-06
5.78971e-07
-2.79252e-05
-2.41512e-07
-3.66409e-05
-5.56607e-06
-1.53626e-13
1.62287e-05
-8.31604e-06
-3.77318e-13
1.8684e-05
-9.04358e-06
-9.12429e-13
1.62944e-05
-8.66876e-06
-1.13519e-12
1.31186e-05
-7.8704e-06
-9.44884e-13
9.76974e-06
-7.24333e-06
-2.28528e-13
5.48263e-06
-7.35213e-06
2.33071e-13
-1.22945e-06
-8.16615e-06
7.43254e-15
-1.24972e-05
-7.19839e-06
2.75047e-13
-2.8357e-05
5.9813e-13
-3.70992e-05
-5.56607e-06
4.65187e-07
1.62287e-05
-8.31604e-06
5.39116e-07
1.8684e-05
-9.04358e-06
2.63743e-07
1.62944e-05
-8.66876e-06
-1.53083e-07
1.31186e-05
-7.8704e-06
-6.38084e-07
9.76974e-06
-7.24333e-06
-1.13193e-06
5.48263e-06
-7.35213e-06
-1.47885e-06
-1.22945e-06
-8.16615e-06
-1.34329e-06
-1.24972e-05
-7.19839e-06
-5.7897e-07
-2.8357e-05
2.41513e-07
-3.70992e-05
-5.58636e-06
9.3117e-07
1.62665e-05
-8.31543e-06
1.02188e-06
1.86699e-05
-9.01988e-06
4.73148e-07
1.6203e-05
-8.64584e-06
-3.2815e-07
1.29649e-05
-7.88255e-06
-1.25485e-06
9.58232e-06
-7.30709e-06
-2.21409e-06
5.31535e-06
-7.43315e-06
-2.9247e-06
-1.28179e-06
-8.17633e-06
-2.71283e-06
-1.23281e-05
-7.12166e-06
-1.19764e-06
-2.79252e-05
5.64799e-07
-3.66409e-05
-5.47751e-06
1.25632e-06
1.62128e-05
-8.00343e-06
1.25873e-06
1.83356e-05
-8.57514e-06
5.31264e-07
1.57038e-05
-8.21269e-06
-4.69052e-07
1.24034e-05
-7.62638e-06
-1.62442e-06
9.05027e-06
-7.35859e-06
-2.8504e-06
4.9312e-06
-7.78418e-06
-3.84452e-06
-1.34944e-06
-8.56868e-06
-3.70712e-06
-1.18703e-05
-7.26894e-06
-1.76578e-06
-2.67748e-05
8.42109e-07
-3.54016e-05
-4.84495e-06
1.02839e-06
1.54046e-05
-6.67528e-06
9.04327e-07
1.65138e-05
-6.8702e-06
3.27952e-07
1.36982e-05
-6.54133e-06
-4.06868e-07
1.05899e-05
-6.41367e-06
-1.23379e-06
7.61296e-06
-6.9638e-06
-2.15661e-06
4.09473e-06
-8.34017e-06
-2.99924e-06
-1.31998e-06
-9.62473e-06
-3.05058e-06
-1.05719e-05
-8.04698e-06
-1.66509e-06
-2.36867e-05
6.47251e-07
-3.20748e-05
-2.85349e-06
1.07557e-05
-3.30226e-06
9.68118e-06
-2.99909e-06
7.4176e-06
-2.78618e-06
5.47596e-06
-3.18733e-06
3.90152e-06
-4.52817e-06
2.12573e-06
-6.81822e-06
-8.20802e-07
-8.68959e-06
-6.27825e-06
-7.48315e-06
-1.42702e-05
-2.07112e-05
-2.89501e-06
-1.67905e-06
1.53298e-05
-2.57139e-07
-1.51103e-06
8.55434e-06
3.15331e-06
-7.28603e-07
4.73576e-06
5.55361e-06
1.47635e-07
2.92803e-06
6.63934e-06
1.09127e-06
1.72451e-06
6.04452e-06
2.10919e-06
6.11358e-07
3.31174e-06
3.18558e-06
-1.27361e-06
-1.00337e-06
3.32766e-06
-5.2908e-06
-3.5783e-06
1.36483e-06
-1.30601e-05
-2.20735e-06
-2.20822e-05
-5.21928e-06
-1.82767e-06
2.07725e-05
-1.973e-06
-1.94316e-06
1.36997e-05
2.97765e-06
-1.11686e-06
9.13579e-06
7.33611e-06
3.17554e-09
6.37594e-06
1.06e-05
1.19421e-06
4.24608e-06
1.21731e-05
2.48213e-06
2.14877e-06
1.1169e-05
3.69849e-06
-8.28796e-07
7.24059e-06
3.67028e-06
-6.9861e-06
2.20654e-06
1.21244e-06
-1.85003e-05
-2.10855e-06
-2.9967e-05
-5.91551e-06
-1.26478e-06
2.15654e-05
-2.84992e-06
-1.49464e-06
1.48215e-05
2.26252e-06
-9.41906e-07
1.04164e-05
7.21948e-06
-1.25144e-07
7.5748e-06
1.14245e-05
8.00709e-07
5.23879e-06
1.42239e-05
1.78042e-06
2.83351e-06
1.43881e-05
2.64985e-06
-4.65039e-07
1.09307e-05
2.58884e-06
-7.3315e-06
4.38875e-06
8.56044e-07
-1.98765e-05
-1.24368e-06
-3.18777e-05
-5.96558e-06
-6.09456e-07
2.15768e-05
-2.94784e-06
-7.66214e-07
1.49238e-05
2.18294e-06
-5.0696e-07
1.06372e-05
7.27428e-06
-1.04679e-07
7.85313e-06
1.17647e-05
3.69016e-07
5.52364e-06
1.49391e-05
8.6911e-07