/*--------------------------------*- C++ -*----------------------------------*\
  =========                 |
  \\      /  F ield         | OpenFOAM: The Open Source CFD Toolbox
   \\    /   O peration     | Website:  https://openfoam.org
    \\  /    A nd           | Version:  9
     \\/     M anipulation  |
\*---------------------------------------------------------------------------*/
FoamFile
{
    format      ascii;
    class       volScalarField;
    location    "0.07";
    object      p;
}
// * * * * * * * * * * * * * * * * * * * * * * * * * * * * * * * * * * * * * //

dimensions      [0 2 -2 0 0 0 0];

internalField   nonuniform List<scalar> 
1000
(
1.54668e-08
4.46186e-05
0.00151285
0.00407288
0.00744353
0.0112504
0.0150058
0.0181555
0.0201382
0.0203639
0.000102547
-5.62786e-05
0.00140135
0.00400455
0.00745126
0.0113484
0.0151978
0.0184209
0.020405
0.0203965
0.000232923
-8.71387e-06
0.00142964
0.00403471
0.00750037
0.0114333
0.0153223
0.0185711
0.0205455
0.0204306
0.000336849
5.41254e-05
0.0014752
0.00407505
0.0075462
0.0114918
0.0153949
0.0186509
0.0206164
0.0204565
0.000393575
9.62567e-05
0.0015085
0.00410288
0.00757291
0.0115211
0.0154275
0.0186845
0.0206454
0.0204699
0.000393486
9.6184e-05
0.00150845
0.00410284
0.00757289
0.011521
0.0154275
0.0186845
0.0206454
0.0204699
0.000336555
5.38907e-05
0.00147503
0.00407493
0.00754613
0.0114918
0.0153948
0.0186508
0.0206164
0.0204564
0.00023231
-9.16206e-06
0.00142932
0.00403451
0.00750024
0.0114332
0.0153222
0.0185711
0.0205455
0.0204306
0.000101459
-5.70133e-05
0.00140089
0.00400426
0.00745108
0.0113483
0.0151977
0.0184209
0.0204049
0.0203965
-1.44027e-06
4.35167e-05
0.0015122
0.00407252
0.0074433
0.0112503
0.0150057
0.0181554
0.0201381
0.0203639
-0.000120479
-0.000134994
0.00133796
0.00389369
0.00727275
0.0111173
0.0149556
0.0182195
0.0203152
0.02052
0.000224598
-1.90205e-05
0.00141415
0.00395543
0.0073364
0.0111992
0.0150634
0.0183479
0.0204153
0.020338
0.000471814
0.0001211
0.0015203
0.00403916
0.00741067
0.0112771
0.0151511
0.0184395
0.0204857
0.0202846
0.00062868
0.000230762
0.00160539
0.00410617
0.00746823
0.0113331
0.0152094
0.0184962
0.0205284
0.0202752
0.000705127
0.00028993
0.00165237
0.00414312
0.00749893
0.0113613
0.015237
0.018522
0.0205475
0.0202768
0.000705049
0.000289865
0.00165232
0.00414309
0.00749891
0.0113613
0.015237
0.0185219
0.0205475
0.0202768
0.000628424
0.000230552
0.00160524
0.00410607
0.00746817
0.0113331
0.0152093
0.0184962
0.0205284
0.0202752
0.000471327
0.000120716
0.00152003
0.00403898
0.00741056
0.011277
0.015151
0.0184395
0.0204857
0.0202846
0.000223807
-1.96126e-05
0.00141375
0.00395518
0.00733625
0.0111992
0.0150634
0.0183478
0.0204153
0.020338
-0.000121621
-0.000135807
0.00133744
0.00389337
0.00727255
0.0111172
0.0149555
0.0182194
0.0203152
0.02052
-0.00184917
-0.00190581
-0.000231866
0.0026611
0.00650091
0.0109255
0.015438
0.0193944
0.0220398
0.0223731
-0.0013409
-0.00168772
-7.10828e-05
0.00278782
0.00661022
0.01104
0.01557
0.019543
0.0221466
0.02211
-0.000984121
-0.0014702
9.60907e-05
0.00291443
0.00671078
0.0111318
0.0156638
0.0196366
0.0222114
0.022017
-0.00076267
-0.00130963
0.000220296
0.0030071
0.00678149
0.0111915
0.01572
0.0196884
0.022246
0.0219878
-0.000657381
-0.00122689
0.000284835
0.00305489
0.00681681
0.0112194
0.0157443
0.019709
0.022258
0.0219806
-0.000657452
-0.00122695
0.000284791
0.00305486
0.00681679
0.0112194
0.0157443
0.019709
0.022258
0.0219806
-0.000762894
-0.00130982
0.000220158
0.00300701
0.00678144
0.0111914
0.0157199
0.0196883
0.022246
0.0219877
-0.000984519
-0.00147054
9.58474e-05
0.00291427
0.00671069
0.0111318
0.0156638
0.0196365
0.0222114
0.0220169
-0.00134148
-0.0016882
-7.14313e-05
0.0027876
0.00661009
0.0110399
0.0155699
0.019543
0.0221465
0.02211
-0.00184994
-0.00190642
-0.000232305
0.00266081
0.00650072
0.0109254
0.0154379
0.0193943
0.0220397
0.0223731
-0.00533172
-0.0053609
-0.00326427
0.000291058
0.00500438
0.0105058
0.0162918
0.0215964
0.0253691
0.0261605
-0.00461623
-0.00502256
-0.00300625
0.000495093
0.00517612
0.0106778
0.0164837
0.0218168
0.0255355
0.0258452
-0.00411222
-0.00470373
-0.00276376
0.000671022
0.00530483
0.0107839
0.0165869
0.0219231
0.0256099
0.0257267
-0.00380144
-0.00447546
-0.00259178
0.000790757
0.00538489
0.0108403
0.0166349
0.0219689
0.0256382
0.0256833
-0.00365538
-0.00436042
-0.00250521
0.000849646
0.00542163
0.0108623
0.0166502
0.0219803
0.0256445
0.0256688
-0.00365544
-0.00436048
-0.00250525
0.00084962
0.00542161
0.0108623
0.0166502
0.0219803
0.0256444
0.0256688
-0.00380163
-0.00447562
-0.0025919
0.000790676
0.00538483
0.0108402
0.0166349
0.0219688
0.0256381
0.0256832
-0.00411254
-0.00470401
-0.00276397
0.000670882
0.00530472
0.0107838
0.0165868
0.021923
0.0256097
0.0257266
-0.00461667
-0.00502295
-0.00300654
0.000494894
0.00517598
0.0106776
0.0164836
0.0218166
0.0255354
0.0258451
-0.00533226
-0.00536136
-0.00326462
0.000290813
0.00500419
0.0105057
0.0162916
0.0215963
0.025369
0.0261605
-0.0111628
-0.0110028
-0.00817577
-0.00357908
0.0024562
0.009579
0.017352
0.0249043
0.0307501
0.0327667
-0.0101271
-0.0104853
-0.00778718
-0.00328584
0.00268864
0.00980443
0.0176011
0.0252162
0.0310038
0.0324545
-0.00940831
-0.0100267
-0.00745428
-0.00306687
0.00282226
0.00989097
0.0176779
0.0253119
0.0310777
0.0323356
-0.0089723
-0.00970861
-0.0072286
-0.00292956
0.00289002
0.00991364
0.0176868
0.025328
0.0310904
0.0322875
-0.00877037
-0.00955146
-0.00711793
-0.00286521
0.00291627
0.00991338
0.0176771
0.0253197
0.0310833
0.0322681
-0.00877041
-0.00955149
-0.00711796
-0.00286524
0.00291624
0.00991334
0.0176771
0.0253197
0.0310832
0.032268
-0.00897244
-0.00970873
-0.0072287
-0.00292964
0.00288994
0.00991354
0.0176867
0.0253279
0.0310903
0.0322875
-0.00940854
-0.0100269
-0.00745445
-0.003067
0.00282213
0.00989083
0.0176777
0.0253117
0.0310776
0.0323355
-0.0101274
-0.0104856
-0.0077874
-0.00328601
0.00268848
0.00980425
0.0176009
0.025216
0.0310037
0.0324544
-0.0111631
-0.0110031
-0.00817603
-0.00357928
0.00245601
0.00957879
0.0173518
0.0249042
0.03075
0.0327666
-0.020401
-0.0196121
-0.0155694
-0.00946478
-0.00162371
0.00774641
0.0182607
0.0293131
0.0388976
0.0439529
-0.0188455
-0.0188292
-0.0150399
-0.00913181
-0.00142648
0.0078456
0.0184177
0.0296193
0.0392104
0.0438467
-0.0178056
-0.0181805
-0.0146189
-0.00891886
-0.00137542
0.00779416
0.0183446
0.0296046
0.0392435
0.0438095
-0.0171932
-0.0177457
-0.0143435
-0.0087965
-0.00137544
0.00770748
0.0182329
0.0295216
0.0391986
0.043782
-0.0169154
-0.017535
-0.0142107
-0.00874142
-0.00138514
0.0076474
0.0181599
0.02946
0.039159
0.0437634
-0.0169154
-0.017535
-0.0142108
-0.00874146
-0.00138519
0.00764734
0.0181599
0.02946
0.039159
0.0437634
-0.0171933
-0.0177458
-0.0143436
-0.0087966
-0.00137556
0.00770735
0.0182328
0.0295215
0.0391985
0.043782
-0.0178057
-0.0181807
-0.014619
-0.008919
-0.00137559
0.00779398
0.0183445
0.0296045
0.0392435
0.0438094
-0.0188457
-0.0188293
-0.01504
-0.00913196
-0.00142667
0.00784538
0.0184175
0.0296192
0.0392104
0.0438467
-0.0204013
-0.0196123
-0.0155696
-0.00946495
-0.00162392
0.00774618
0.0182606
0.029313
0.0388975
0.0439528
-0.035076
-0.0323291
-0.0261601
-0.0179218
-0.00780948
0.00422861
0.0183095
0.0344664
0.0504088
0.0629979
-0.032642
-0.0311555
-0.0255871
-0.0177955
-0.00798377
0.00386696
0.0178408
0.0341639
0.0503315
0.0631787
-0.0311031
-0.0302421
-0.0251216
-0.0177225
-0.00820545
0.00344303
0.0173169
0.0337484
0.0501306
0.0632485
-0.0302389
-0.0296522
-0.0248138
-0.0176796
-0.00837396
0.00312818
0.0169195
0.0333998
0.049912
0.0632524
-0.029858
-0.0293717
-0.0246634
-0.0176574
-0.00845805
0.00297221
0.016719
0.033219
0.0497924
0.0632378
-0.029858
-0.0293717
-0.0246634
-0.0176574
-0.0084581
0.00297216
0.016719
0.033219
0.0497924
0.0632378
-0.0302389
-0.0296522
-0.0248138
-0.0176797
-0.0083741
0.00312806
0.0169194
0.0333997
0.049912
0.0632524
-0.0311031
-0.0302421
-0.0251217
-0.0177226
-0.00820564
0.00344286
0.0173168
0.0337483
0.0501305
0.0632485
-0.0326421
-0.0311556
-0.0255872
-0.0177957
-0.00798399
0.00386675
0.0178407
0.0341638
0.0503314
0.0631786
-0.0350761
-0.0323292
-0.0261602
-0.0179219
-0.00780972
0.0042284
0.0183095
0.0344664
0.0504087
0.0629978
-0.0604918
-0.0507771
-0.0405369
-0.0291259
-0.0162091
-0.00124039
0.0164935
0.0389164
0.0638883
0.0944239
-0.0569468
-0.0493048
-0.0403653
-0.029842
-0.017473
-0.00300172
0.0141616
0.0363552
0.0612148
0.0942902
-0.0547393
-0.0480647
-0.0399619
-0.0301425
-0.0182874
-0.00422876
0.0126057
0.0348146
0.0598929
0.0942752
-0.0535369
-0.0472657
-0.039641
-0.0302566
-0.018749
-0.00496581
0.0116867
0.0339226
0.0591929
0.09429
-0.0530204
-0.0468902
-0.0394699
-0.0302863
-0.0189478
-0.00529656
0.011278
0.0335269
0.0588996
0.0942776
-0.0530203
-0.0468902
-0.0394699
-0.0302864
-0.0189479
-0.0052966
0.011278
0.0335269
0.0588996
0.0942776
-0.0535369
-0.0472657
-0.039641
-0.0302567
-0.0187491
-0.00496591
0.0116866
0.0339225
0.0591929
0.09429
-0.0547393
-0.0480647
-0.039962
-0.0301427
-0.0182876
-0.0042289
0.0126056
0.0348145
0.0598928
0.0942752
-0.0569468
-0.0493048
-0.0403654
-0.0298422
-0.0174732
-0.00300188
0.0141615
0.0363552
0.0612147
0.0942901
-0.0604917
-0.0507771
-0.0405371
-0.0291261
-0.0162093
-0.00124054
0.0164935
0.0389163
0.0638882
0.0944238
-0.0984065
-0.0735025
-0.0578474
-0.0418801
-0.0256432
-0.00817352
0.0122717
0.0430486
0.0783618
0.156519
-0.0917351
-0.0717203
-0.0589727
-0.0442974
-0.0287617
-0.0121477
0.00713446
0.0377384
0.0700836
0.160933
-0.0882954
-0.0700603
-0.0587892
-0.0452051
-0.0304061
-0.0144211
0.00425736
0.0350361
0.066693
0.16311
-0.0865894
-0.0689662
-0.0584927
-0.0455322
-0.0312239
-0.0156404
0.00267024
0.0335683
0.0653437
0.163936
-0.0858906
-0.0684523
-0.0582969
-0.0456211
-0.0315486
-0.0161562
0.00199017
0.0329268
0.0648838
0.164158
-0.0858906
-0.0684523
-0.0582969
-0.0456212
-0.0315487
-0.0161562
0.00199016
0.0329268
0.0648838
0.164158
-0.0865893
-0.0689662
-0.0584928
-0.0455323
-0.031224
-0.0156405
0.0026702
0.0335683
0.0653437
0.163936
-0.0882953
-0.0700603
-0.0587892
-0.0452052
-0.0304063
-0.0144213
0.00425731
0.035036
0.0666929
0.16311
-0.091735
-0.0717202
-0.0589728
-0.0442976
-0.0287619
-0.0121478
0.00713443
0.0377383
0.0700835
0.160933
-0.0984064
-0.0735025
-0.0578475
-0.0418803
-0.0256433
-0.00817363
0.0122716
0.0430486
0.0783617
0.156519
-0.215278
-0.0934488
-0.0637258
-0.0447611
-0.0268878
-0.00734314
0.0181238
0.0625768
0.134832
0.317174
-0.206156
-0.0856584
-0.0615393
-0.0455982
-0.0291531
-0.0109237
0.0128567
0.058266
0.136216
0.334578
-0.201273
-0.0819595
-0.0601438
-0.0458331
-0.0304792
-0.0130917
0.0100225
0.0562539
0.137178
0.341919
-0.198852
-0.0800792
-0.0592676
-0.0458538
-0.031165
-0.0142565
0.00855606
0.0551487
0.137243
0.344642
-0.197874
-0.0792958
-0.0588607
-0.0458313
-0.0314447
-0.0147524
0.00793757
0.0546532
0.137152
0.345462
-0.197874
-0.0792958
-0.0588608
-0.0458313
-0.0314448
-0.0147525
0.00793756
0.0546531
0.137152
0.345462
-0.198852
-0.0800792
-0.0592676
-0.0458539
-0.0311651
-0.0142566
0.00855602
0.0551486
0.137243
0.344642
-0.201273
-0.0819595
-0.0601438
-0.0458332
-0.0304794
-0.0130918
0.0100224
0.0562538
0.137178
0.341919
-0.206156
-0.0856583
-0.0615393
-0.0455983
-0.0291533
-0.0109238
0.0128567
0.0582659
0.136216
0.334578
-0.215278
-0.0934487
-0.0637258
-0.0447613
-0.0268879
-0.00734309
0.0181238
0.0625767
0.134832
0.317174
)
;

boundaryField
{
    top
    {
        type            zeroGradient;
    }
    others
    {
        type            zeroGradient;
    }
}


// ************************************************************************* //
