/*--------------------------------*- C++ -*----------------------------------*\
  =========                 |
  \\      /  F ield         | OpenFOAM: The Open Source CFD Toolbox
   \\    /   O peration     | Website:  https://openfoam.org
    \\  /    A nd           | Version:  9
     \\/     M anipulation  |
\*---------------------------------------------------------------------------*/
FoamFile
{
    format      ascii;
    class       surfaceScalarField;
    location    "0.07";
    object      phi;
}
// * * * * * * * * * * * * * * * * * * * * * * * * * * * * * * * * * * * * * //

dimensions      [0 3 -1 0 0 0 0];

internalField   nonuniform List<scalar> 
2700
(
-2.16379e-07
-1.44368e-08
2.30816e-07
-5.70553e-07
3.06273e-09
3.51111e-07
-8.92426e-07
7.48668e-09
3.14386e-07
-1.11916e-06
3.9981e-09
2.22732e-07
-1.221e-06
-3.33062e-09
1.05172e-07
-1.17874e-06
-1.37357e-08
-2.85228e-08
-9.85052e-07
-2.41461e-08
-1.69539e-07
-6.54682e-07
-3.13172e-08
-2.99053e-07
-2.56695e-07
-2.85216e-08
-3.69465e-07
-3.41745e-09
-2.53278e-07
-3.36701e-07
-1.94e-08
3.41664e-07
-8.7516e-07
-7.61446e-09
5.49136e-07
-1.35802e-06
-2.25085e-09
4.92601e-07
-1.6928e-06
-3.16247e-09
3.41933e-07
-1.83747e-06
-7.90534e-09
1.49252e-07
-1.76804e-06
-1.46711e-08
-6.84938e-08
-1.47515e-06
-2.15225e-08
-2.9552e-07
-9.80444e-07
-2.56307e-08
-5.00389e-07
-3.859e-07
-2.20452e-08
-6.01021e-07
-3.75362e-09
-3.85564e-07
-3.56927e-07
-1.60083e-08
3.53535e-07
-9.33856e-07
-1.19145e-08
5.81229e-07
-1.45084e-06
-8.02277e-09
5.22754e-07
-1.80848e-06
-6.79261e-09
3.61269e-07
-1.96272e-06
-7.85805e-09
1.54194e-07
-1.88749e-06
-1.03374e-08
-7.95679e-08
-1.57291e-06
-1.29851e-08
-3.23111e-07
-1.04215e-06
-1.412e-08
-5.42271e-07
-4.05902e-07
-1.14932e-08
-6.46802e-07
-2.6975e-09
-4.06958e-07
-3.56547e-07
-8.7892e-09
3.49328e-07
-9.40185e-07
-7.88497e-09
5.79609e-07
-1.46446e-06
-5.88133e-09
5.22137e-07
-1.82729e-06
-4.76045e-09
3.60799e-07
-1.98387e-06
-4.63443e-09
1.53352e-07
-1.90772e-06
-5.15929e-09
-8.13259e-08
-1.58864e-06
-5.82115e-09
-3.26244e-07
-1.05012e-06
-5.90087e-09
-5.46742e-07
-4.05865e-07
-4.6139e-09
-6.51134e-07
-1.35017e-09
-4.07212e-07
-3.55037e-07
4.54181e-12
3.46243e-07
-9.39472e-07
3.67391e-13
5.76549e-07
-1.46521e-06
4.99737e-13
5.19852e-07
-1.82933e-06
6.26507e-13
3.59369e-07
-1.98669e-06
4.7425e-13
1.52717e-07
-1.91052e-06
3.52737e-13
-8.13294e-08
-1.59049e-06
3.56148e-13
-3.25846e-07
-1.05028e-06
4.58522e-13
-5.46117e-07
-4.04632e-07
6.81049e-13
-6.50259e-07
5.85099e-13
-4.05983e-07
-3.55037e-07
8.79888e-09
3.46243e-07
-9.39472e-07
7.88562e-09
5.76549e-07
-1.46521e-06
5.88261e-09
5.19852e-07
-1.82934e-06
4.76193e-09
3.59368e-07
-1.98669e-06
4.6355e-09
1.52717e-07
-1.91052e-06
5.16008e-09
-8.13295e-08
-1.59049e-06
5.82194e-09
-3.25846e-07
-1.05028e-06
5.90178e-09
-5.46116e-07
-4.04632e-07
4.61518e-09
-6.50259e-07
1.35121e-09
-4.05983e-07
-3.56548e-07
1.602e-08
3.49327e-07
-9.40186e-07
1.19147e-08
5.79609e-07
-1.46446e-06
8.02473e-09
5.22136e-07
-1.82729e-06
6.79456e-09
3.60798e-07
-1.98387e-06
7.85949e-09
1.53352e-07
-1.90772e-06
1.03384e-08
-8.13262e-08
-1.58864e-06
1.29859e-08
-3.26244e-07
-1.05012e-06
1.41208e-08
-5.46742e-07
-4.05864e-07
1.14942e-08
-6.51134e-07
2.69804e-09
-4.07211e-07
-3.5693e-07
1.94157e-08
3.53534e-07
-9.33858e-07
7.61089e-09
5.81232e-07
-1.45084e-06
2.25402e-09
5.22753e-07
-1.80848e-06
3.16507e-09
3.61268e-07
-1.96272e-06
7.90717e-09
1.54193e-07
-1.88748e-06
1.46723e-08
-7.95684e-08
-1.57291e-06
2.15234e-08
-3.2311e-07
-1.04215e-06
2.56314e-08
-5.4227e-07
-4.05902e-07
2.20461e-08
-6.46801e-07
3.75394e-09
-4.06958e-07
-3.36695e-07
1.44384e-08
3.41672e-07
-8.75157e-07
-3.07321e-09
5.49146e-07
-1.35802e-06
-7.48292e-09
4.92603e-07
-1.6928e-06
-3.99524e-09
3.41933e-07
-1.83747e-06
3.33252e-09
1.49251e-07
-1.76804e-06
1.37371e-08
-6.8494e-08
-1.47515e-06
2.41469e-08
-2.9552e-07
-9.80444e-07
3.13178e-08
-5.00389e-07
-3.859e-07
2.85223e-08
-6.01021e-07
3.41805e-09
-3.85564e-07
-2.16379e-07
2.30817e-07
-5.7057e-07
3.51118e-07
-8.92436e-07
3.14383e-07
-1.11916e-06
2.22731e-07
-1.221e-06
1.05171e-07
-1.17874e-06
-2.85228e-08
-9.85054e-07
-1.69539e-07
-6.54683e-07
-2.99053e-07
-2.56696e-07
-3.69465e-07
-2.53278e-07
-3.74694e-07
-4.60462e-08
6.51556e-07
-9.29416e-07
-2.58295e-08
9.31662e-07
-1.42361e-06
-1.58143e-08
8.24393e-07
-1.76905e-06
-1.20443e-08
5.80215e-07
-1.92317e-06
-1.21685e-08
2.71459e-07
-1.8598e-06
-1.51783e-08
-7.67108e-08
-1.56619e-06
-1.91756e-08
-4.43974e-07
-1.06145e-06
-2.08527e-08
-7.82938e-07
-4.40747e-07
-1.25575e-08
-9.77612e-07
1.88079e-08
-7.12833e-07
-6.19214e-07
-4.54358e-08
9.60267e-07
-1.50431e-06
-3.41586e-08
1.44257e-06
-2.28196e-06
-2.35094e-08
1.27794e-06
-2.81571e-06
-1.77019e-08
8.81341e-07
-3.04365e-06
-1.59116e-08
3.80934e-07
-2.93087e-06
-1.71666e-08
-1.79289e-07
-2.46271e-06
-1.93776e-08
-7.63474e-07
-1.6702e-06
-1.9233e-08
-1.29452e-06
-6.9969e-07
-1.10357e-08
-1.57305e-06
1.1867e-08
-1.07831e-06
-6.6554e-07
-3.11265e-08
1.00477e-06
-1.6235e-06
-2.80349e-08
1.53307e-06
-2.46397e-06
-2.07089e-08
1.36043e-06
-3.03902e-06
-1.55333e-08
9.34148e-07
-3.28285e-06
-1.29668e-08
3.95082e-07
-3.15869e-06
-1.24551e-08
-2.08444e-07
-2.65123e-06
-1.2655e-08
-8.37294e-07
-1.79405e-06
-1.15027e-08
-1.40718e-06
-7.46902e-07
-6.35235e-09
-1.69863e-06
4.49049e-09
-1.14648e-06
-6.67869e-07
-1.54889e-08
1.00156e-06
-1.63801e-06
-1.53256e-08
1.53704e-06
-2.49067e-06
-1.17525e-08
1.36584e-06
-3.07435e-06
-8.80416e-09
9.37756e-07
-3.32206e-06
-7.04089e-09
3.95138e-07
-3.19632e-06
-6.26304e-09
-2.1326e-07
-2.68131e-06
-5.8849e-09
-8.48022e-07
-1.81118e-06
-5.00318e-09
-1.42338e-06
-7.49941e-07
-2.68824e-09
-1.71604e-06
1.25161e-09
-1.15391e-06
-6.65821e-07
3.86476e-13
9.96575e-07
-1.63722e-06
-3.84607e-12
1.53263e-06
-2.49205e-06
-1.75346e-12
1.36293e-06
-3.07767e-06
-5.47087e-13
9.36186e-07
-3.32655e-06
-3.13796e-13
3.94563e-07
-3.20086e-06
-2.71663e-13
-2.13284e-07
-2.68454e-06
-1.19974e-13
-8.48057e-07
-1.81194e-06
1.37057e-13
-1.42372e-06
-7.48522e-07
6.0593e-13
-1.71636e-06
8.62147e-13
-1.15325e-06
-6.6582e-07
1.54891e-08
9.96575e-07
-1.63722e-06
1.53177e-08
1.53263e-06
-2.49205e-06
1.17491e-08
1.36293e-06
-3.07767e-06
8.80314e-09
9.36185e-07
-3.32655e-06
7.04027e-09
3.94563e-07
-3.20086e-06
6.26254e-09
-2.13284e-07
-2.68453e-06
5.88479e-09
-8.48057e-07
-1.81194e-06
5.00353e-09
-1.42372e-06
-7.48522e-07
2.68948e-09
-1.71636e-06
-1.2501e-09
-1.15325e-06
-6.67868e-07
3.11263e-08
1.00156e-06
-1.63801e-06
2.80263e-08
1.53704e-06
-2.49067e-06
2.07058e-08
1.36583e-06
-3.07435e-06
1.55325e-08
9.37755e-07
-3.32206e-06
1.29664e-08
3.95137e-07
-3.19632e-06
1.24547e-08
-2.13261e-07
-2.68131e-06
1.26549e-08
-8.48021e-07
-1.81118e-06
1.15031e-08
-1.42338e-06
-7.49941e-07
6.35357e-09
-1.71604e-06
-4.48927e-09
-1.15391e-06
-6.65538e-07
4.54327e-08
1.00477e-06
-1.6235e-06
3.41489e-08
1.53307e-06
-2.46397e-06
2.35065e-08
1.36043e-06
-3.03902e-06
1.77013e-08
9.34147e-07
-3.28285e-06
1.59114e-08
3.95081e-07
-3.15869e-06
1.71662e-08
-2.08445e-07
-2.65123e-06
1.93775e-08
-8.37293e-07
-1.79404e-06
1.92334e-08
-1.40718e-06
-7.46901e-07
1.1037e-08
-1.69863e-06
-1.18658e-08
-1.14648e-06
-6.19205e-07
4.60376e-08
9.60272e-07
-1.50431e-06
2.58212e-08
1.44258e-06
-2.28196e-06
1.58134e-08
1.27795e-06
-2.81571e-06
1.20449e-08
8.81342e-07
-3.04365e-06
1.2169e-08
3.80934e-07
-2.93086e-06
1.51785e-08
-1.79289e-07
-2.46271e-06
1.91758e-08
-7.63474e-07
-1.6702e-06
2.08533e-08
-1.29452e-06
-6.99688e-07
1.25589e-08
-1.57305e-06
-1.88065e-08
-1.07831e-06
-3.74687e-07
6.51542e-07
-9.29413e-07
9.31666e-07
-1.42361e-06
8.24392e-07
-1.76905e-06
5.80215e-07
-1.92317e-06
2.71459e-07
-1.8598e-06
-7.67107e-08
-1.56619e-06
-4.43973e-07
-1.06145e-06
-7.82938e-07
-4.40746e-07
-9.77612e-07
-7.12832e-07
-4.74511e-07
-7.05762e-08
1.19664e-06
-1.15884e-06
-4.8048e-08
1.66404e-06
-1.75831e-06
-3.3421e-08
1.45728e-06
-2.1779e-06
-2.45565e-08
1.02437e-06
-2.37543e-06
-1.98235e-08
4.8881e-07
-2.3203e-06
-1.89407e-08
-1.12896e-07
-1.98715e-06
-2.00307e-08
-7.57101e-07
-1.37865e-06
-1.95443e-08
-1.37189e-06
-5.91376e-07
-7.88005e-09
-1.757e-06
3.04904e-08
-1.3347e-06
-7.93662e-07
-6.86847e-08
1.75204e-06
-1.89766e-06
-5.70859e-08
2.5556e-06
-2.8511e-06
-4.13067e-08
2.23927e-06
-3.50519e-06
-2.97047e-08
1.54058e-06
-3.79888e-06
-2.2517e-08
6.77317e-07
-3.69127e-06
-1.93506e-08
-2.86488e-07
-3.15036e-06
-1.83681e-08
-1.30604e-06
-2.18398e-06
-1.59501e-08
-2.26449e-06
-9.4297e-07
-5.02829e-09
-2.81692e-06
2.15722e-08
-2.01236e-06
-8.54608e-07
-4.59047e-08
1.83659e-06
-2.05186e-06
-4.35533e-08
2.71679e-06
-3.08452e-06
-3.25663e-08
2.38435e-06
-3.7906e-06
-2.30929e-08
1.63362e-06
-4.10523e-06
-1.65458e-08
7.03738e-07
-3.98538e-06
-1.28006e-08
-3.34846e-07
-3.39738e-06
-1.07235e-08
-1.43294e-06
-2.35002e-06
-8.04957e-09
-2.46245e-06
-1.0089e-06
-1.5847e-09
-3.04319e-06
1.006e-08
-2.14387e-06
-8.5747e-07
-2.23263e-08
1.83545e-06
-2.06967e-06
-2.27554e-08
2.72845e-06
-3.1172e-06
-1.73645e-08
2.39816e-06
-3.83404e-06
-1.22239e-08
1.64373e-06
-4.15396e-06
-8.42645e-09
7.06943e-07
-4.033e-06
-6.0116e-09
-3.41015e-07
-3.43654e-06
-4.50612e-09
-1.45069e-06
-2.37349e-06
-2.91802e-09
-2.49156e-06
-1.01419e-06
-1.67336e-10
-3.07675e-06
3.71132e-09
-2.16175e-06
-8.54547e-07
4.17478e-13
1.8288e-06
-2.06791e-06
-2.11779e-12
2.72324e-06
-3.11788e-06
-2.33193e-13
2.39553e-06
-3.83708e-06
4.41121e-13
1.64316e-06
-4.15864e-06
2.90797e-13
7.07698e-07
-4.03813e-06
6.46592e-14
-3.39812e-07
-3.44052e-06
-2.9467e-16
-1.45017e-06
-2.37477e-06
-9.67111e-15
-2.49239e-06
-1.01281e-06
1.28102e-13
-3.07849e-06
6.12223e-13
-2.16235e-06
-8.54547e-07
2.23272e-08
1.8288e-06
-2.06791e-06
2.27512e-08
2.72324e-06
-3.11788e-06
1.7364e-08
2.39553e-06
-3.83708e-06
1.22248e-08
1.64316e-06
-4.15864e-06
8.42688e-09
7.07698e-07
-4.03813e-06
6.01155e-09
-3.39812e-07
-3.44052e-06
4.50608e-09
-1.45017e-06
-2.37477e-06
2.91795e-09
-2.49239e-06
-1.01281e-06
1.67615e-10
-3.07849e-06
-3.71024e-09
-2.16235e-06
-8.57471e-07
4.59062e-08
1.83545e-06
-2.06968e-06
4.35493e-08
2.72845e-06
-3.1172e-06
3.2566e-08
2.39816e-06
-3.83404e-06
2.30935e-08
1.64373e-06
-4.15397e-06
1.65458e-08
7.06942e-07
-4.033e-06
1.28001e-08
-3.41015e-07
-3.43654e-06
1.0723e-08
-1.45069e-06
-2.37349e-06
8.04935e-09
-2.49156e-06
-1.01419e-06
1.58502e-09
-3.07675e-06
-1.00592e-08
-2.16175e-06
-8.54608e-07
6.86866e-08
1.83659e-06
-2.05186e-06
5.70823e-08
2.71679e-06
-3.08452e-06
4.13063e-08
2.38435e-06
-3.7906e-06
2.97049e-08
1.63362e-06
-4.10523e-06
2.25164e-08
7.03737e-07
-3.98538e-06
1.93493e-08
-3.34847e-07
-3.39738e-06
1.83672e-08
-1.43294e-06
-2.35002e-06
1.59498e-08
-2.46244e-06
-1.0089e-06
5.02883e-09
-3.04319e-06
-2.15716e-08
-2.14387e-06
-7.9366e-07
7.05792e-08
1.75204e-06
-1.89766e-06
4.80457e-08
2.55561e-06
-2.8511e-06
3.34211e-08
2.23927e-06
-3.50518e-06
2.45568e-08
1.54058e-06
-3.79887e-06
1.9823e-08
6.77316e-07
-3.69127e-06
1.89396e-08
-2.86489e-07
-3.15036e-06
2.00299e-08
-1.30604e-06
-2.18398e-06
1.95441e-08
-2.26449e-06
-9.42969e-07
7.88057e-09
-2.81692e-06
-3.04899e-08
-2.01236e-06
-4.74513e-07
1.19663e-06
-1.15884e-06
1.66404e-06
-1.75831e-06
1.45728e-06
-2.1779e-06
1.02436e-06
-2.37543e-06
4.88809e-07
-2.3203e-06
-1.12897e-07
-1.98715e-06
-7.57101e-07
-1.37865e-06
-1.37189e-06
-5.91376e-07
-1.757e-06
-1.3347e-06
-6.18896e-07
-1.01021e-07
1.91656e-06
-1.47623e-06
-7.38703e-08
2.59524e-06
-2.20837e-06
-5.28554e-08
2.24228e-06
-2.72225e-06
-3.80425e-08
1.57629e-06
-2.98476e-06
-2.84885e-08
7.79808e-07
-2.96388e-06
-2.44482e-08
-1.09331e-07
-2.60806e-06
-2.41347e-08
-1.08878e-06
-1.87933e-06
-2.36265e-08
-2.077e-06
-8.52377e-07
-9.30864e-09
-2.77464e-06
3.77915e-08
-2.22487e-06
-1.03262e-06
-9.83853e-08
2.78202e-06
-2.41792e-06
-8.49739e-08
3.95201e-06
-3.58532e-06
-6.15212e-08
3.41533e-06
-4.3876e-06
-4.21457e-08
2.34695e-06
-4.77856e-06
-2.84151e-08
1.06821e-06
-4.71573e-06
-2.07252e-08
-3.53045e-07
-4.13017e-06
-1.74784e-08
-1.89825e-06
-2.96862e-06
-1.46235e-08
-3.43505e-06
-1.34955e-06
-2.42554e-09
-4.44287e-06
2.8238e-08
-3.35236e-06
-1.11002e-06
-6.53041e-08
2.91353e-06
-2.61162e-06
-6.29866e-08
4.19641e-06
-3.87642e-06
-4.62204e-08
3.63385e-06
-4.74311e-06
-3.0509e-08
2.48866e-06
-5.1626e-06
-1.85952e-08
1.11341e-06
-5.0904e-06
-1.09799e-08
-4.16786e-07
-4.45349e-06
-6.85852e-09
-2.08047e-06
-3.19453e-06
-3.7345e-09
-3.7323e-06
-1.44545e-06
3.19701e-09
-4.79789e-06
1.45958e-08
-3.57568e-06
-1.11239e-06
-3.14719e-08
2.914e-06
-2.63156e-06
-3.22397e-08
4.21688e-06
-3.91425e-06
-2.38951e-08
3.65853e-06
-4.79445e-06
-1.5432e-08
2.50885e-06
-5.22155e-06
-8.74047e-09
1.12419e-06
-5.15004e-06
-4.21383e-09
-4.19291e-07
-4.50502e-06
-1.59893e-09
-2.10098e-06
-3.22802e-06
2.50924e-10
-3.77255e-06
-1.45546e-06
3.11621e-09
-4.84923e-06
6.04479e-09
-3.60866e-06
-1.1079e-06
3.99716e-13
2.90522e-06
-2.6278e-06
-1.10364e-12
4.2109e-06
-3.91323e-06
2.29307e-13
3.65707e-06
-4.79645e-06
6.21841e-13
2.51095e-06
-5.22602e-06
2.71366e-13
1.12853e-06
-5.15588e-06
-8.56605e-14
-4.14163e-07
-4.51041e-06
-1.72891e-13
-2.09724e-06
-3.23077e-06
-3.67865e-13
-3.77178e-06
-1.4548e-06
-4.60481e-13
-4.85134e-06
1.71389e-13
-3.61111e-06
-1.1079e-06
3.14728e-08
2.90522e-06
-2.6278e-06
3.22377e-08
4.2109e-06
-3.91323e-06
2.38957e-08
3.65707e-06
-4.79645e-06
1.54332e-08
2.51095e-06
-5.22602e-06
8.74072e-09
1.12853e-06
-5.15588e-06
4.21339e-09
-4.14163e-07
-4.51041e-06
1.59844e-09
-2.09724e-06
-3.23077e-06
-2.51888e-10
-3.77178e-06
-1.4548e-06
-3.11708e-09
-4.85134e-06
-6.04443e-09
-3.61111e-06
-1.11239e-06
6.53054e-08
2.914e-06
-2.63156e-06
6.29848e-08
4.21688e-06
-3.91426e-06
4.62209e-08
3.65853e-06
-4.79445e-06
3.05097e-08
2.50885e-06
-5.22156e-06
1.85947e-08
1.12419e-06
-5.15004e-06
1.09786e-08
-4.19291e-07
-4.50502e-06
6.85754e-09
-2.10098e-06
-3.22802e-06
3.73369e-09
-3.77255e-06
-1.45546e-06
-3.19767e-09
-4.84923e-06
-1.45956e-08
-3.60866e-06
-1.11002e-06
9.8387e-08
2.91353e-06
-2.61162e-06
8.49726e-08
4.19641e-06
-3.87642e-06
6.15217e-08
3.63385e-06
-4.74311e-06
4.21457e-08
2.48866e-06
-5.1626e-06
2.84137e-08
1.11341e-06
-5.09041e-06
2.0723e-08
-4.16786e-07
-4.45349e-06
1.74771e-08
-2.08047e-06
-3.19453e-06
1.46228e-08
-3.7323e-06
-1.44546e-06
2.42515e-09
-4.79789e-06
-2.8238e-08
-3.57568e-06
-1.03262e-06
1.01023e-07
2.78202e-06
-2.41792e-06
7.38701e-08
3.95201e-06
-3.58532e-06
5.28561e-08
3.41533e-06
-4.3876e-06
3.80425e-08
2.34695e-06
-4.77856e-06
2.84871e-08
1.06821e-06
-4.71573e-06
2.4446e-08
-3.53045e-07
-4.13017e-06
2.41333e-08
-1.89825e-06
-2.96862e-06
2.36261e-08
-3.43505e-06
-1.34955e-06
9.30854e-09
-4.44287e-06
-3.77918e-08
-3.35236e-06
-6.18896e-07
1.91655e-06
-1.47623e-06
2.59524e-06
-2.20837e-06
2.24228e-06
-2.72225e-06
1.57629e-06
-2.98476e-06
7.79807e-07
-2.96388e-06
-1.09333e-07
-2.60806e-06
-1.08878e-06
-1.87933e-06
-2.077e-06
-8.52378e-07
-2.77464e-06
-2.22487e-06
-8.66333e-07
-1.46607e-07
2.9295e-06
-1.97433e-06
-1.10492e-07
3.81374e-06
-2.87808e-06
-7.7213e-08
3.22324e-06
-3.51079e-06
-5.15533e-08
2.26055e-06
-3.86714e-06
-3.3837e-08
1.16999e-06
-3.9224e-06
-2.46901e-08
-2.93862e-08
-3.58623e-06
-2.26175e-08
-1.40233e-06
-2.73559e-06
-2.43771e-08
-2.90326e-06
-1.35805e-06
-9.99025e-09
-4.14219e-06
3.94582e-08
-3.62238e-06
-1.42912e-06
-1.41263e-07
4.2058e-06
-3.21889e-06
-1.22875e-07
5.75417e-06
-4.6634e-06
-8.52791e-08
4.8679e-06
-5.65266e-06
-5.23181e-08
3.33698e-06
-6.18454e-06
-2.8133e-08
1.59438e-06
-6.22849e-06
-1.36831e-08
-3.20096e-07
-5.66113e-06
-7.8525e-09
-2.48037e-06
-4.30009e-06
-6.79921e-09
-4.81367e-06
-2.13021e-06
3.80424e-09
-6.62654e-06
3.1109e-08
-5.47423e-06
-1.53052e-06
-9.24239e-08
4.39521e-06
-3.46815e-06
-8.85504e-08
6.09971e-06
-5.03386e-06
-6.14742e-08
5.17575e-06
-6.10385e-06
-3.52592e-08
3.54159e-06
-6.67603e-06
-1.49172e-08
1.67238e-06
-6.71907e-06
-1.69982e-09
-3.85727e-07
-6.10213e-06
5.34785e-09
-2.71062e-06
-4.62864e-06
7.78946e-09
-5.22038e-06
-2.28624e-06
1.20238e-08
-7.14851e-06
1.79602e-08
-5.84877e-06
-1.53134e-06
-4.39971e-08
4.39691e-06
-3.48953e-06
-4.44758e-08
6.131e-06
-5.07726e-06
-3.09814e-08
5.21577e-06
-6.1649e-06
-1.70596e-08
3.57828e-06
-6.74849e-06
-5.88364e-09
1.69875e-06
-6.79622e-06
1.79356e-09
-3.75048e-07
-6.17388e-06
6.10039e-09
-2.72407e-06
-4.68125e-06
7.70783e-09
-5.2651e-06
-2.30851e-06
8.80822e-09
-7.21876e-06
8.30523e-09
-5.90752e-06
-1.52417e-06
2.47023e-13
4.38539e-06
-3.48216e-06
-4.77721e-13
6.12442e-06
-5.07307e-06
4.46842e-13
5.21699e-06
-6.16489e-06
6.12489e-13
3.58571e-06
-6.75244e-06
2.10469e-13
1.71019e-06
-6.80334e-06
-8.30875e-14
-3.61471e-07
-6.18221e-06
7.64548e-14
-2.71227e-06
-4.68768e-06
-7.74662e-14
-5.2586e-06
-2.31077e-06
-2.44543e-13
-7.21944e-06
3.58854e-13
-5.91357e-06
-1.52417e-06
4.39977e-08
4.38539e-06
-3.48216e-06
4.4475e-08
6.12442e-06
-5.07307e-06
3.09824e-08
5.21699e-06
-6.16489e-06
1.70607e-08
3.58571e-06
-6.75244e-06
5.88373e-09
1.71019e-06
-6.80334e-06
-1.79391e-09
-3.61471e-07
-6.18221e-06
-6.10025e-09
-2.71227e-06
-4.68768e-06
-7.70785e-09
-5.2586e-06
-2.31077e-06
-8.80848e-09
-7.21944e-06
-8.3044e-09
-5.91357e-06
-1.53134e-06
9.2425e-08
4.39691e-06
-3.48954e-06
8.85501e-08
6.131e-06
-5.07727e-06
6.14751e-08
5.21577e-06
-6.1649e-06
3.52598e-08
3.57828e-06
-6.74849e-06
1.49166e-08
1.69875e-06
-6.79622e-06
1.69891e-09
-3.75048e-07
-6.17388e-06
-5.34773e-09
-2.72407e-06
-4.68125e-06
-7.78905e-09
-5.2651e-06
-2.30851e-06
-1.20235e-08
-7.21876e-06
-1.79593e-08
-5.90752e-06
-1.53052e-06
1.41264e-07
4.39521e-06
-3.46815e-06
1.22876e-07
6.09971e-06
-5.03386e-06
8.52801e-08
5.17575e-06
-6.10385e-06
5.2318e-08
3.54159e-06
-6.67603e-06
2.81314e-08
1.67238e-06
-6.71907e-06
1.36816e-08
-3.85727e-07
-6.10213e-06
7.85282e-09
-2.71061e-06
-4.62864e-06
6.80022e-09
-5.22038e-06
-2.28624e-06
-3.80334e-09
-7.14851e-06
-3.11083e-08
-5.84877e-06
-1.42912e-06
1.46609e-07
4.2058e-06
-3.21889e-06
1.10493e-07
5.75417e-06
-4.6634e-06
7.72143e-08
4.8679e-06
-5.65266e-06
5.15531e-08
3.33698e-06
-6.18454e-06
3.38355e-08
1.59438e-06
-6.22849e-06
2.46883e-08
-3.20096e-07
-5.66113e-06
2.26178e-08
-2.48037e-06
-4.30009e-06
2.43788e-08
-4.81367e-06
-2.13021e-06
9.99176e-09
-6.62654e-06
-3.94575e-08
-5.47423e-06
-8.66333e-07
2.9295e-06
-1.97433e-06
3.81374e-06
-2.87808e-06
3.22324e-06
-3.51079e-06
2.26055e-06
-3.86714e-06
1.16999e-06
-3.9224e-06
-2.93882e-08
-3.58623e-06
-1.40233e-06
-2.73559e-06
-2.90326e-06
-1.35805e-06
-4.14219e-06
-3.62238e-06
-1.30487e-06
-2.17723e-07
4.4521e-06
-2.74745e-06
-1.62504e-07
5.41882e-06
-3.83003e-06
-1.02288e-07
4.40811e-06
-4.57666e-06
-5.41313e-08
3.06132e-06
-5.04821e-06
-1.99151e-08
1.66146e-06
-5.24413e-06
2.32345e-09
1.6421e-07
-5.04161e-06
8.05456e-09
-1.61291e-06
-4.15999e-06
2.94687e-09
-3.78783e-06
-2.35182e-06
5.24332e-09
-5.9556e-06
2.55383e-08
-5.99974e-06
-2.10487e-06
-2.04603e-07
6.29754e-06
-4.43734e-06
-1.73651e-07
8.09779e-06
-6.1788e-06
-1.07906e-07
6.61499e-06
-7.34944e-06
-4.97748e-08
4.50325e-06
-8.04988e-06
-7.36111e-09
2.28228e-06
-8.29536e-06
2.13151e-08
-9.36066e-08
-7.91118e-06
3.4405e-08
-2.89091e-06
-6.48141e-06
3.12906e-08
-6.27178e-06
-3.6285e-06
2.87666e-08
-9.50298e-06
2.42178e-08
-9.1014e-06
-2.24057e-06
-1.30503e-07
6.56168e-06
-4.76206e-06
-1.21334e-07
8.56888e-06
-6.65292e-06
-7.52443e-08
7.03395e-06
-7.92249e-06
-3.08835e-08
4.79228e-06
-8.67804e-06
3.37301e-09
2.4172e-06
-8.93897e-06
2.7637e-08
-1.31125e-07
-8.51913e-06
3.96696e-08
-3.13572e-06
-6.97307e-06
3.937e-08
-6.77452e-06
-3.89638e-06
3.3463e-08
-1.02299e-05
1.81334e-08
-9.73906e-06
-2.23745e-06
-6.09891e-08
6.56485e-06
-4.78233e-06
-5.97643e-08
8.61431e-06
-6.70053e-06
-3.7228e-08
7.09595e-06
-7.99346e-06
-1.4259e-08
4.85459e-06
-8.76603e-06
4.19072e-09
2.4705e-06
-9.03809e-06
1.74961e-08
-9.28432e-08
-8.62061e-06
2.42775e-08
-3.12616e-06
-7.05961e-06
2.45758e-08
-6.81131e-06
-3.94673e-06
2.04743e-08
-1.03186e-05
9.98857e-09
-9.8461e-06
-2.22568e-06
3.94157e-15
6.55008e-06
-4.7685e-06
-2.12638e-13
8.60748e-06
-6.69058e-06
2.8789e-13
7.10184e-06
-7.98962e-06
3.38492e-13
4.87048e-06
-8.76831e-06
6.95804e-15
2.49308e-06
-9.04674e-06
9.40708e-14
-6.55473e-08
-8.63407e-06
6.90571e-13
-3.10067e-06
-7.07407e-06
5.70038e-13
-6.79403e-06
-3.95713e-06
1.71396e-13
-1.03159e-05
5.18777e-13
-9.86072e-06
-2.22568e-06
6.09894e-08
6.55008e-06
-4.7685e-06
5.9764e-08
8.60748e-06
-6.69058e-06
3.72285e-08
7.10184e-06
-7.98962e-06
1.42594e-08
4.87048e-06
-8.76831e-06
-4.19095e-09
2.49308e-06
-9.04674e-06
-1.74961e-08
-6.55471e-08
-8.63407e-06
-2.42762e-08
-3.10067e-06
-7.07407e-06
-2.45746e-08
-6.79403e-06
-3.95713e-06
-2.04739e-08
-1.03159e-05
-9.98755e-09
-9.86072e-06
-2.23745e-06
1.30504e-07
6.56485e-06
-4.78233e-06
1.21334e-07
8.61431e-06
-6.70053e-06
7.52445e-08
7.09595e-06
-7.99346e-06
3.0883e-08
4.85459e-06
-8.76603e-06
-3.37398e-09
2.4705e-06
-9.03809e-06
-2.76374e-08
-9.28427e-08
-8.62061e-06
-3.96681e-08
-3.12616e-06
-7.05961e-06
-3.93685e-08
-6.81131e-06
-3.94673e-06
-3.34624e-08
-1.03186e-05
-1.81325e-08
-9.8461e-06
-2.24057e-06
2.04605e-07
6.56168e-06
-4.76206e-06
1.73652e-07
8.56888e-06
-6.65292e-06
1.07906e-07
7.03395e-06
-7.92249e-06
4.97732e-08
4.79228e-06
-8.67804e-06
7.35934e-09
2.4172e-06
-8.93897e-06
-2.13157e-08
-1.31124e-07
-8.51913e-06
-3.44029e-08
-3.13572e-06
-6.97307e-06
-3.12884e-08
-6.77452e-06
-3.89638e-06
-2.87659e-08
-1.02299e-05
-2.42175e-08
-9.73906e-06
-2.10487e-06
2.17725e-07
6.29754e-06
-4.43734e-06
1.62505e-07
8.09779e-06
-6.1788e-06
1.02288e-07
6.61499e-06
-7.34944e-06
5.41296e-08
4.50325e-06
-8.04988e-06
1.99129e-08
2.28228e-06
-8.29536e-06
-2.32407e-09
-9.36057e-08
-7.91118e-06
-8.05266e-09
-2.89091e-06
-6.48141e-06
-2.94456e-09
-6.27179e-06
-3.6285e-06
-5.24222e-09
-9.50298e-06
-2.55376e-08
-9.1014e-06
-1.30487e-06
4.45209e-06
-2.74745e-06
5.41882e-06
-3.83003e-06
4.40811e-06
-4.57666e-06
3.06132e-06
-5.04821e-06
1.66146e-06
-5.24413e-06
1.64208e-07
-5.04161e-06
-1.61291e-06
-4.15999e-06
-3.78783e-06
-2.35182e-06
-5.9556e-06
-5.99973e-06
-2.13614e-06
-3.27908e-07
6.91614e-06
-3.91288e-06
-2.30133e-07
7.42569e-06
-5.04737e-06
-1.08562e-07
5.65116e-06
-5.79656e-06
-1.46078e-08
3.82511e-06
-6.3395e-06
4.95221e-08
2.15488e-06
-6.73821e-06
9.51314e-08
4.67785e-07
-6.86617e-06
1.24653e-07
-1.6096e-06
-6.2223e-06
1.17814e-07
-4.54951e-06
-4.0814e-06
9.41341e-08
-8.19064e-06
3.154e-09
-1.00843e-05
-3.30698e-06
-2.9718e-07
9.5738e-06
-6.21497e-06
-2.36993e-07
1.10126e-05
-8.07264e-06
-1.14946e-07
8.47904e-06
-9.24397e-06
-1.09195e-08
5.67089e-06
-1.00223e-05
6.57395e-08
3.04441e-06
-1.05211e-05
1.20368e-07
3.79952e-07
-1.05646e-05
1.54085e-07
-2.87685e-06
-9.42988e-06
1.50587e-07
-7.43928e-06
-6.04558e-06
1.18808e-07
-1.2912e-05
9.91131e-09
-1.51537e-05
-3.48644e-06
-1.8298e-07
9.93392e-06
-6.63004e-06
-1.61046e-07
1.16365e-05
-8.65864e-06
-8.07446e-08
9.02835e-06
-9.93595e-06
-6.04141e-09
6.06471e-06
-1.07729e-05
5.18525e-08
3.26798e-06
-1.1296e-05
9.29899e-08
4.19438e-07
-1.13261e-05
1.17444e-07
-3.069e-06
-1.00895e-05
1.14961e-07
-7.97555e-06
-6.44847e-06
8.80719e-08
-1.38402e-05
1.35831e-08
-1.61912e-05
-3.47394e-06
-8.34961e-08
9.9393e-06
-6.64216e-06
-7.80204e-08
1.16995e-05
-8.70372e-06
-4.02813e-08
9.11705e-06
-1.00103e-05
-2.99869e-09
6.15812e-06
-1.087e-05
2.68668e-08
3.35521e-06
-1.14102e-05
4.80929e-08
4.92259e-07
-1.14558e-05
6.03382e-08
-3.0235e-06
-1.0217e-05
5.89827e-08
-7.99411e-06
-6.54162e-06
4.45843e-08
-1.39506e-05
9.61335e-09
-1.63837e-05
-3.4544e-06
-2.7403e-13
9.92098e-06
-6.61732e-06
-4.20133e-13
1.16924e-05
-8.68386e-06
-2.38097e-13
9.1281e-06
-9.99933e-06
-1.82804e-13
6.18295e-06
-1.08689e-05
-1.74721e-13
3.3895e-06
-1.14185e-05
2.94106e-13
5.3221e-07
-1.14757e-05
9.98871e-13
-2.98319e-06
-1.02444e-05
3.05225e-13
-7.96631e-06
-6.5674e-06
-5.58112e-13
-1.39483e-05
1.94681e-13
-1.64185e-05
-3.4544e-06
8.34959e-08
9.92098e-06
-6.61732e-06
7.80196e-08
1.16924e-05
-8.68386e-06
4.02805e-08
9.1281e-06
-9.99933e-06
2.99801e-09
6.18295e-06
-1.08689e-05
-2.68672e-08
3.3895e-06
-1.14185e-05
-4.80924e-08
5.3221e-07
-1.14757e-05
-6.03362e-08
-2.98319e-06
-1.02444e-05
-5.8982e-08
-7.96631e-06
-6.5674e-06
-4.45855e-08
-1.39483e-05
-9.61296e-09
-1.64185e-05
-3.47394e-06
1.8298e-07
9.9393e-06
-6.64216e-06
1.61045e-07
1.16995e-05
-8.70372e-06
8.07433e-08
9.11705e-06
-1.00103e-05
6.03991e-09
6.15812e-06
-1.087e-05
-5.18533e-08
3.35521e-06
-1.14102e-05
-9.29894e-08
4.9226e-07
-1.14558e-05
-1.17442e-07
-3.0235e-06
-1.0217e-05
-1.1496e-07
-7.99411e-06
-6.54162e-06
-8.80734e-08
-1.39506e-05
-1.3583e-08
-1.63837e-05
-3.48644e-06
2.97181e-07
9.93392e-06
-6.63004e-06
2.36992e-07
1.16365e-05
-8.65864e-06
1.14944e-07
9.02835e-06
-9.93595e-06
1.0917e-08
6.06471e-06
-1.07729e-05
-6.57406e-08
3.26798e-06
-1.1296e-05
-1.20368e-07
4.1944e-07
-1.13261e-05
-1.54083e-07
-3.069e-06
-1.00895e-05
-1.50587e-07
-7.97555e-06
-6.44847e-06
-1.1881e-07
-1.38402e-05
-9.91132e-09
-1.61912e-05
-3.30698e-06
3.2791e-07
9.5738e-06
-6.21497e-06
2.30133e-07
1.10126e-05
-8.07264e-06
1.0856e-07
8.47904e-06
-9.24397e-06
1.46051e-08
5.67089e-06
-1.00223e-05
-4.95236e-08
3.04441e-06
-1.05211e-05
-9.5131e-08
3.79955e-07
-1.05646e-05
-1.2465e-07
-2.87685e-06
-9.42988e-06
-1.17813e-07
-7.43928e-06
-6.04558e-06
-9.41353e-08
-1.2912e-05
-3.15525e-09
-1.51537e-05
-2.13614e-06
6.91614e-06
-3.91287e-06
7.42569e-06
-5.04737e-06
5.65116e-06
-5.79656e-06
3.82511e-06
-6.33951e-06
2.15488e-06
-6.73821e-06
4.67784e-07
-6.86617e-06
-1.6096e-06
-6.2223e-06
-4.54951e-06
-4.08141e-06
-8.19063e-06
-1.00843e-05
-3.67149e-06
-4.61526e-07
1.10492e-05
-5.23671e-06
-2.77657e-07
9.26857e-06
-5.83797e-06
-4.25477e-08
6.29497e-06
-6.16237e-06
1.19295e-07
4.03022e-06
-6.51035e-06
2.25806e-07
2.27706e-06
-7.00288e-06
3.15661e-07
6.44654e-07
-7.62787e-06
4.20358e-07
-1.40497e-06
-7.64792e-06
4.55959e-07
-4.98542e-06
-5.95089e-06
4.35148e-07
-1.03228e-05
-3.03704e-08
-1.60048e-05
-5.46734e-06
-4.10804e-07
1.49904e-05
-8.15765e-06
-2.95247e-07
1.37205e-05
-9.19157e-06
-7.69542e-08
9.54737e-06
-9.62486e-06
9.55555e-08
6.12791e-06
-9.96587e-06
2.1741e-07
3.39381e-06
-1.03987e-05
3.15841e-07
8.12579e-07
-1.09414e-05
4.03834e-07
-2.31761e-06
-1.056e-05
4.21709e-07
-7.78642e-06
-7.84249e-06
3.62229e-07
-1.55566e-05
-3.79834e-08
-2.29886e-05
-5.71901e-06
-2.4775e-07
1.54899e-05
-8.64221e-06
-2.0264e-07
1.44671e-05
-9.79804e-06
-6.94244e-08
1.01766e-05
-1.02758e-05
4.83915e-08
6.58965e-06
-1.06158e-05
1.37461e-07
3.6879e-06
-1.10219e-05
2.06441e-07
9.34913e-07
-1.15314e-05
2.56208e-07
-2.41185e-06
-1.10624e-05
2.57724e-07
-8.28055e-06
-8.17748e-06
2.01613e-07
-1.65644e-05
-1.45277e-08
-2.43921e-05
-5.69368e-06
-1.11185e-07
1.54964e-05
-8.63025e-06
-9.84206e-08
1.45318e-05
-9.81737e-06
-3.89191e-08
1.02737e-05
-1.03221e-05
1.8037e-08
6.6932e-06
-1.06799e-05
6.27886e-08
3.78765e-06
-1.11014e-05
9.67089e-08
1.02355e-06
-1.16329e-05
1.18133e-07
-2.35395e-06
-1.11802e-05
1.16052e-07
-8.30515e-06
-8.29521e-06
8.59566e-08
-1.67199e-05
-1.02449e-09
-2.46925e-05
-5.66326e-06
-5.02584e-13
1.54731e-05
-8.588e-06
-6.62956e-13
1.45187e-05
-9.78138e-06
-7.76545e-13
1.02826e-05
-1.0298e-05
-5.05538e-13
6.71762e-06
-1.0668e-05
-5.02031e-14
3.82226e-06
-1.11037e-05
9.39273e-13
1.06467e-06
-1.16533e-05
6.56813e-13
-2.31548e-06
-1.12182e-05
-4.24089e-13
-8.28542e-06
-8.34104e-06
-5.26023e-13
-1.67395e-05
1.0322e-13
-2.47606e-05
-5.66326e-06
1.11184e-07
1.54731e-05
-8.588e-06
9.84191e-08
1.45187e-05
-9.78138e-06
3.89174e-08
1.02826e-05
-1.0298e-05
-1.80382e-08
6.71762e-06
-1.0668e-05
-6.27886e-08
3.82226e-06
-1.11037e-05
-9.67071e-08
1.06467e-06
-1.16533e-05
-1.18132e-07
-2.31548e-06
-1.12182e-05
-1.16053e-07
-8.28542e-06
-8.34104e-06
-8.59578e-08
-1.67395e-05
1.02465e-09
-2.47606e-05
-5.69368e-06
2.47749e-07
1.54964e-05
-8.63025e-06
2.02639e-07
1.45318e-05
-9.81737e-06
6.94225e-08
1.02737e-05
-1.03221e-05
-4.83927e-08
6.6932e-06
-1.06799e-05
-1.3746e-07
3.78765e-06
-1.11014e-05
-2.06439e-07
1.02355e-06
-1.16329e-05
-2.56206e-07
-2.35395e-06
-1.11802e-05
-2.57725e-07
-8.30515e-06
-8.29521e-06
-2.01615e-07
-1.67199e-05
1.45273e-08
-2.46925e-05
-5.71901e-06
4.10803e-07
1.54899e-05
-8.64221e-06
2.95246e-07
1.44671e-05
-9.79803e-06
7.69524e-08
1.01766e-05
-1.02758e-05
-9.55565e-08
6.58965e-06
-1.06158e-05
-2.17409e-07
3.6879e-06
-1.10219e-05
-3.15839e-07
9.34917e-07
-1.15314e-05
-4.03833e-07
-2.41185e-06
-1.10624e-05
-4.21711e-07
-8.28055e-06
-8.17748e-06
-3.62231e-07
-1.65644e-05
3.79832e-08
-2.43921e-05
-5.46734e-06
4.61527e-07
1.49904e-05
-8.15765e-06
2.77656e-07
1.37205e-05
-9.19157e-06
4.25468e-08
9.54737e-06
-9.62486e-06
-1.19296e-07
6.12791e-06
-9.96587e-06
-2.25805e-07
3.39382e-06
-1.03987e-05
-3.15658e-07
8.12583e-07
-1.09414e-05
-4.20356e-07
-2.31761e-06
-1.056e-05
-4.5596e-07
-7.78642e-06
-7.84249e-06
-4.35151e-07
-1.55566e-05
3.03695e-08
-2.29886e-05
-3.67149e-06
1.10492e-05
-5.23671e-06
9.26857e-06
-5.83797e-06
6.29497e-06
-6.16237e-06
4.03022e-06
-6.51036e-06
2.27706e-06
-7.00288e-06
6.44654e-07
-7.62787e-06
-1.40497e-06
-7.64792e-06
-4.98542e-06
-5.95089e-06
-1.03228e-05
-1.60048e-05
-3.93842e-06
-7.82968e-07
1.57705e-05
-2.90624e-06
-3.62754e-07
8.59914e-06
-1.30444e-06
6.86455e-08
4.62453e-06
-2.41783e-07
3.18323e-07
2.64924e-06
1.66811e-07
4.64537e-07
1.40393e-06
-1.4325e-07
5.97391e-07
3.57323e-07
-1.22323e-06
8.20111e-07
-1.14511e-06
-2.8303e-06
8.36424e-07
-4.21477e-06
-3.62303e-06
8.72349e-07
-1.04024e-05
-5.09431e-07
-1.91184e-05
-5.917e-06
-6.2982e-07
2.07543e-05
-4.64021e-06
-3.95111e-07
1.24761e-05
-2.1743e-06
-1.8045e-08
7.16815e-06
-2.29167e-07
2.2353e-07
4.27757e-06
9.27209e-07
3.90729e-07
2.31125e-06
1.12681e-06
5.34059e-07
6.76308e-07
4.53037e-07
6.97544e-07
-1.52127e-06
-1.38356e-06
7.05874e-07
-5.81927e-06
-2.11988e-06
6.20292e-07
-1.45682e-05
-3.81831e-07
-2.52361e-05
-6.15349e-06
-3.52902e-07
2.13664e-05
-4.85271e-06
-2.72413e-07
1.30437e-05
-2.26068e-06
-6.70025e-08
7.63357e-06
-1.63125e-07
9.73598e-08
4.61827e-06
1.16252e-06
2.19328e-07
2.53366e-06
1.52141e-06
3.15596e-07
7.9448e-07
9.28085e-07
4.07433e-07
-1.52841e-06
-9.51351e-07
3.98388e-07
-6.09363e-06
-1.76206e-06
3.01887e-07
-1.54353e-05
-1.62141e-07
-2.63739e-05
-6.08503e-06
-1.51704e-07
2.13803e-05
-4.74916e-06
-1.31677e-07
1.30552e-05
-2.16368e-06
-4.59828e-08
7.66718e-06
-7.15049e-08
3.15813e-08
4.6668e-06
1.26013e-06