/*--------------------------------*- C++ -*----------------------------------*\
  =========                 |
  \\      /  F ield         | OpenFOAM: The Open Source CFD Toolbox
   \\    /   O peration     | Website:  https://openfoam.org
    \\  /    A nd           | Version:  9
     \\/     M anipulation  |
\*---------------------------------------------------------------------------*/
FoamFile
{
    format      ascii;
    class       volVectorField;
    location    "0.07";
    object      U;
}
// * * * * * * * * * * * * * * * * * * * * * * * * * * * * * * * * * * * * * //

dimensions      [0 1 -1 0 0 0 0];

internalField   nonuniform List<vector> 
1000
(
(-0.000919877 -8.22717e-05 0.000938588)
(-0.00380232 4.38499e-05 0.00148893)
(-0.00742938 6.95571e-05 0.00134641)
(-0.0102437 4.18051e-05 0.000962203)
(-0.0119159 -1.47458e-05 0.000463826)
(-0.0122296 -8.47806e-05 -0.000107789)
(-0.0110462 -0.000156059 -0.00071501)
(-0.008361 -0.000206135 -0.00127319)
(-0.00445149 -0.000188418 -0.00156877)
(-0.00112457 -2.093e-05 -0.00103608)
(-0.00142952 -0.000184938 0.0013757)
(-0.00586212 -8.58447e-06 0.00232448)
(-0.0113703 4.22242e-05 0.00210812)
(-0.015573 1.50311e-05 0.00147661)
(-0.0180142 -5.95899e-05 0.000659813)
(-0.0184124 -0.000161704 -0.000271383)
(-0.0165925 -0.000266891 -0.00124855)
(-0.0125483 -0.000335969 -0.00213079)
(-0.00666772 -0.000298856 -0.00255003)
(-0.00167461 -4.00845e-05 -0.0015665)
(-0.001501 -0.000185239 0.00140347)
(-0.0062348 -0.000118332 0.00244533)
(-0.0121506 -7.32164e-05 0.00222613)
(-0.0166467 -6.4678e-05 0.001553)
(-0.0192527 -8.59585e-05 0.000679395)
(-0.019671 -0.000128477 -0.000315069)
(-0.0177131 -0.000173923 -0.00135822)
(-0.0133716 -0.00019717 -0.00229795)
(-0.00705183 -0.000164782 -0.00273025)
(-0.00174085 -3.28091e-05 -0.00163749)
(-0.00148718 -0.000127057 0.00137289)
(-0.00625352 -0.000107764 0.00242531)
(-0.0122539 -7.81763e-05 0.00221255)
(-0.0168146 -6.40143e-05 0.00154367)
(-0.019459 -6.55666e-05 0.000672786)
(-0.019885 -7.76371e-05 -0.000321287)
(-0.0179 -9.13991e-05 -0.00136652)
(-0.013495 -9.49983e-05 -0.00230891)
(-0.00707998 -7.54068e-05 -0.00273846)
(-0.00172764 -2.01068e-05 -0.001628)
(-0.00147554 -4.486e-05 0.00135476)
(-0.00623813 -4.22541e-05 0.00240668)
(-0.0122542 -3.24347e-05 0.00219807)
(-0.0168294 -2.5979e-05 0.00153432)
(-0.0194845 -2.41383e-05 0.0006686)
(-0.0199146 -2.57217e-05 -0.000320963)
(-0.0179248 -2.80536e-05 -0.00136287)
(-0.0135059 -2.76629e-05 -0.00230294)
(-0.00707034 -2.13149e-05 -0.00273053)
(-0.00171709 -6.64955e-06 -0.00161877)
(-0.00147554 4.49599e-05 0.00135476)
(-0.00623813 4.22633e-05 0.00240668)
(-0.0122542 3.24464e-05 0.00219807)
(-0.0168294 2.59927e-05 0.00153432)
(-0.0194845 2.41486e-05 0.0006686)
(-0.0199146 2.57294e-05 -0.000320962)
(-0.0179248 2.80613e-05 -0.00136286)
(-0.0135059 2.76721e-05 -0.00230293)
(-0.00707034 2.1328e-05 -0.00273052)
(-0.00171709 6.66036e-06 -0.00161877)
(-0.00148718 0.000127196 0.0013729)
(-0.00625353 0.000107782 0.00242532)
(-0.0122539 7.81951e-05 0.00221255)
(-0.0168146 6.40319e-05 0.00154367)
(-0.019459 6.55789e-05 0.000672785)
(-0.019885 7.76459e-05 -0.000321286)
(-0.0179 9.14073e-05 -0.00136652)
(-0.013495 9.50073e-05 -0.0023089)
(-0.00707998 7.54188e-05 -0.00273845)
(-0.00172764 2.01146e-05 -0.00162799)
(-0.00150099 0.000185356 0.00140349)
(-0.00623482 0.000118326 0.00244537)
(-0.0121506 7.323e-05 0.00222614)
(-0.0166467 6.4693e-05 0.001553)
(-0.0192527 8.5971e-05 0.000679393)
(-0.019671 0.000128486 -0.000315067)
(-0.0177131 0.000173931 -0.00135822)
(-0.0133716 0.000197177 -0.00229794)
(-0.00705183 0.000164791 -0.00273024)
(-0.00174085 3.28138e-05 -0.00163748)
(-0.00142937 0.000185041 0.00137586)
(-0.00586204 8.52455e-06 0.0023246)
(-0.0113703 -4.21826e-05 0.00210816)
(-0.015573 -1.49993e-05 0.00147662)
(-0.0180142 5.96135e-05 0.000659816)
(-0.0184124 0.00016172 -0.000271378)
(-0.0165924 0.000266902 -0.00124854)
(-0.0125483 0.000335976 -0.00213078)
(-0.00666771 0.000298865 -0.00255001)
(-0.0016746 4.00909e-05 -0.00156649)
(-0.000919725 8.21331e-05 0.000938739)
(-0.0038024 -4.39856e-05 0.00148909)
(-0.00742949 -6.95522e-05 0.00134642)
(-0.0102438 -4.17934e-05 0.000962204)
(-0.0119159 1.47545e-05 0.000463828)
(-0.0122296 8.47844e-05 -0.000107783)
(-0.0110462 0.000156059 -0.000714999)
(-0.00836102 0.000206135 -0.00127317)
(-0.0044515 0.000188422 -0.00156876)
(-0.00112456 2.09367e-05 -0.00103608)
(-0.00165033 -0.00028803 0.0041019)
(-0.00636155 -0.000151434 0.0060185)
(-0.0119818 -8.61791e-05 0.00536192)
(-0.0162914 -6.5679e-05 0.00379018)
(-0.0188338 -7.08116e-05 0.0017815)
(-0.0193132 -9.41851e-05 -0.000496246)
(-0.0175265 -0.00012382 -0.0028884)
(-0.013437 -0.000137882 -0.00508415)
(-0.00740518 -8.24934e-05 -0.00630456)
(-0.00198979 0.000128498 -0.00447707)
(-0.00274223 -0.000525179 0.006027)
(-0.0103863 -0.00033331 0.0093288)
(-0.019327 -0.000213794 0.00832607)
(-0.0260671 -0.000161805 0.00576821)
(-0.0299425 -0.000155913 0.00250717)
(-0.0305528 -0.00018435 -0.00116389)
(-0.0276391 -0.000224196 -0.00497827)
(-0.0211699 -0.000235918 -0.00841788)
(-0.0116852 -0.000138005 -0.0101503)
(-0.00314849 0.000185575 -0.00675306)
(-0.00292983 -0.000394297 0.00626754)
(-0.0111861 -0.000327653 0.00988759)
(-0.0208791 -0.000236769 0.0088444)
(-0.0281543 -0.000177641 0.00610076)
(-0.0323196 -0.000151892 0.00259403)
(-0.0329541 -0.000152626 -0.00135197)
(-0.0297857 -0.000162482 -0.00544869)
(-0.0227817 -0.000153647 -0.00913092)
(-0.0125123 -8.65646e-05 -0.0109339)
(-0.00333705 7.53267e-05 -0.00714771)
(-0.00292467 -0.000234112 0.00621971)
(-0.0112557 -0.000223399 0.00988514)
(-0.0210925 -0.000169547 0.00885549)
(-0.0284753 -0.000126993 0.00610745)
(-0.0327043 -0.000102893 0.00258608)
(-0.0333512 -9.39257e-05 -0.00138355)
(-0.0301372 -9.07513e-05 -0.00551057)
(-0.0230272 -7.89249e-05 -0.00922095)
(-0.0125985 -4.29056e-05 -0.0110256)
(-0.00333433 2.34652e-05 -0.00717247)
(-0.00290866 -7.7588e-05 0.00617654)
(-0.0112355 -7.85893e-05 0.00984407)
(-0.0210958 -6.10525e-05 0.00882591)
(-0.0285003 -4.57013e-05 0.00608953)
(-0.0327454 -3.59865e-05 0.00257816)
(-0.0333988 -3.11916e-05 -0.00138436)
(-0.0301786 -2.84707e-05 -0.00550778)
(-0.0230487 -2.35128e-05 -0.00921695)
(-0.0125896 -1.2471e-05 -0.011019)
(-0.00332128 4.74094e-06 -0.0071595)
(-0.00290866 7.75979e-05 0.00617654)
(-0.0112355 7.85182e-05 0.00984407)
(-0.0210958 6.10204e-05 0.0088259)
(-0.0285003 4.56917e-05 0.00608952)
(-0.0327454 3.59809e-05 0.00257816)
(-0.0333988 3.11868e-05 -0.00138436)
(-0.0301786 2.84689e-05 -0.00550778)
(-0.0230487 2.35155e-05 -0.00921695)
(-0.0125896 1.24824e-05 -0.011019)
(-0.00332128 -4.72475e-06 -0.00715949)
(-0.00292467 0.000234133 0.0062197)
(-0.0112557 0.000223327 0.00988515)
(-0.0210925 0.000169516 0.00885548)
(-0.0284753 0.000126984 0.00610743)
(-0.0327043 0.000102888 0.00258608)
(-0.0333511 9.39211e-05 -0.00138355)
(-0.0301372 9.07503e-05 -0.00551056)
(-0.0230272 7.89281e-05 -0.00922094)
(-0.0125985 4.29171e-05 -0.0110256)
(-0.00333433 -2.34519e-05 -0.00717247)
(-0.0029298 0.000394294 0.00626753)
(-0.0111861 0.000327559 0.00988763)
(-0.020879 0.000236731 0.0088444)
(-0.0281543 0.000177628 0.00610075)
(-0.0323195 0.000151885 0.00259402)
(-0.0329541 0.000152621 -0.00135197)
(-0.0297857 0.000162481 -0.00544868)
(-0.0227816 0.000153652 -0.00913091)
(-0.0125123 8.65787e-05 -0.0109339)
(-0.00333705 -7.53139e-05 -0.00714771)
(-0.0027421 0.000525099 0.00602709)
(-0.0103862 0.000333197 0.00932893)
(-0.019327 0.00021377 0.0083261)
(-0.0260671 0.000161804 0.00576822)
(-0.0299424 0.000155915 0.00250717)
(-0.0305528 0.000184349 -0.00116389)
(-0.0276391 0.000224198 -0.00497826)
(-0.0211699 0.000235924 -0.00841787)
(-0.0116852 0.000138021 -0.0101503)
(-0.00314847 -0.000185561 -0.00675306)
(-0.00165017 0.000287875 0.00410184)
(-0.00636146 0.000151318 0.00601859)
(-0.0119818 8.61468e-05 0.0053619)
(-0.0162914 6.56696e-05 0.00379018)
(-0.0188338 7.08063e-05 0.0017815)
(-0.0193133 9.41791e-05 -0.00049624)
(-0.0175265 0.000123817 -0.00288839)
(-0.013437 0.000137885 -0.00508414)
(-0.00740518 8.25054e-05 -0.00630456)
(-0.00198978 -0.000128484 -0.00447707)
(-0.00211607 -0.00044626 0.00902247)
(-0.00800102 -0.000295597 0.0126922)
(-0.014868 -0.000200811 0.0111829)
(-0.0200793 -0.000148122 0.00787157)
(-0.0232082 -0.000122329 0.00371444)
(-0.023958 -0.000120872 -0.000969486)
(-0.0220408 -0.000131919 -0.00591709)
(-0.0172489 -0.000132017 -0.0105509)
(-0.00979876 -5.39801e-05 -0.0133118)
(-0.00273238 0.000205627 -0.0099189)
(-0.00356145 -0.000803389 0.0132199)
(-0.0132212 -0.000594993 0.0195346)
(-0.0242624 -0.000418877 0.0172305)
(-0.0324906 -0.000304745 0.0118804)
(-0.0372926 -0.000240388 0.00517387)
(-0.0382754 -0.000221454 -0.0023271)
(-0.0350646 -0.000225875 -0.010169)
(-0.0273828 -0.000211265 -0.0173861)
(-0.0155579 -7.64847e-05 -0.0213163)
(-0.00433899 0.000312643 -0.0149206)
(-0.00381318 -0.000587749 0.0138452)
(-0.0142661 -0.000523166 0.0207628)
(-0.0262613 -0.00038686 0.0183445)
(-0.0351605 -0.000275782 0.0125947)
(-0.0403303 -0.00020213 0.0053699)
(-0.0413592 -0.000163938 -0.00271194)
(-0.0378538 -0.000145311 -0.0111546)
(-0.0295183 -0.000116384 -0.0188995)
(-0.0166943 -2.88678e-05 -0.0230163)
(-0.00461379 0.000152095 -0.015873)
(-0.00380693 -0.000340562 0.0138218)
(-0.0143519 -0.000337133 0.020837)
(-0.0265232 -0.000255943 0.018436)
(-0.0355542 -0.000180559 0.0126586)
(-0.0408055 -0.000126109 0.00538136)
(-0.0418565 -9.27143e-05 -0.00277154)
(-0.0383043 -7.22608e-05 -0.0112987)
(-0.0298448 -4.9202e-05 -0.0191237)
(-0.016823 -4.71716e-06 -0.023264)
(-0.00461968 6.24939e-05 -0.0159923)
(-0.00378517 -0.000111012 0.0137638)
(-0.014321 -0.000115057 0.0207884)
(-0.026518 -8.84581e-05 0.0184071)
(-0.0355744 -6.21272e-05 0.0126459)
(-0.0408464 -4.22665e-05 0.00537957)
(-0.0419084 -2.92658e-05 -0.00276893)
(-0.0383531 -2.0779e-05 -0.0112989)
(-0.0298735 -1.2292e-05 -0.0191312)
(-0.0168166 8.70629e-07 -0.0232747)
(-0.00460613 1.67339e-05 -0.0159911)
(-0.00378517 0.000111022 0.0137638)
(-0.014321 0.000115017 0.0207885)
(-0.026518 8.84544e-05 0.0184071)
(-0.0355744 6.21373e-05 0.0126459)
(-0.0408464 4.22729e-05 0.00537957)
(-0.0419084 2.9267e-05 -0.00276893)
(-0.0383531 2.07792e-05 -0.0112989)
(-0.0298735 1.22916e-05 -0.0191312)
(-0.0168166 -8.67937e-07 -0.0232747)
(-0.00460613 -1.67226e-05 -0.0159911)
(-0.00380693 0.000340578 0.0138218)
(-0.0143519 0.000337094 0.020837)
(-0.0265232 0.000255939 0.018436)
(-0.0355542 0.000180566 0.0126586)
(-0.0408055 0.000126111 0.00538135)
(-0.0418565 9.27119e-05 -0.00277155)
(-0.0383043 7.22588e-05 -0.0112987)
(-0.0298448 4.92004e-05 -0.0191237)
(-0.0168231 4.71954e-06 -0.0232641)
(-0.00461968 -6.24854e-05 -0.0159923)
(-0.00381317 0.00058776 0.0138452)
(-0.0142661 0.000523118 0.0207628)
(-0.0262613 0.000386851 0.0183445)
(-0.0351605 0.000275782 0.0125947)
(-0.0403303 0.000202124 0.00536989)
(-0.0413592 0.000163927 -0.00271195)
(-0.0378538 0.000145304 -0.0111546)
(-0.0295182 0.000116382 -0.0188995)
(-0.0166943 2.88729e-05 -0.0230163)
(-0.00461379 -0.000152088 -0.015873)
(-0.00356142 0.000803417 0.0132199)
(-0.0132212 0.000594957 0.0195347)
(-0.0242624 0.000418873 0.0172306)
(-0.0324906 0.000304746 0.0118804)
(-0.0372926 0.00024038 0.00517386)
(-0.0382754 0.000221439 -0.00232711)
(-0.0350646 0.000225865 -0.010169)
(-0.0273828 0.000211262 -0.0173861)
(-0.0155579 7.64901e-05 -0.0213163)
(-0.00433899 -0.000312637 -0.0149206)
(-0.00211606 0.000446251 0.00902239)
(-0.00800103 0.000295559 0.0126922)
(-0.014868 0.000200795 0.0111829)
(-0.0200793 0.000148113 0.00787156)
(-0.0232082 0.000122316 0.00371443)
(-0.023958 0.000120857 -0.000969492)
(-0.0220408 0.00013191 -0.0059171)
(-0.0172489 0.000132016 -0.0105509)
(-0.00979877 5.39867e-05 -0.0133118)
(-0.00273237 -0.000205619 -0.0099189)
(-0.00282075 -0.000640328 0.0152346)
(-0.0103305 -0.000460364 0.0209056)
(-0.0187919 -0.000325689 0.0182188)
(-0.0251213 -0.000237224 0.0128238)
(-0.0290322 -0.00018301 0.00622654)
(-0.0302967 -0.00016376 -0.00117836)
(-0.0284949 -0.000167803 -0.00915962)
(-0.0230497 -0.000168748 -0.016977)
(-0.0137865 -7.22427e-05 -0.0221258)
(-0.00409242 0.000251524 -0.0172234)
(-0.00472949 -0.00115109 0.022163)
(-0.0170552 -0.000903877 0.0319263)
(-0.0306921 -0.000647772 0.0278411)
(-0.0407019 -0.000457038 0.0191707)
(-0.046705 -0.000329963 0.00856811)
(-0.0484268 -0.00026835 -0.00325296)
(-0.0453103 -0.00025209 -0.0158619)
(-0.0365287 -0.000234441 -0.0279958)
(-0.021809 -7.3812e-05 -0.0353569)
(-0.00644572 0.000393975 -0.0258531)
(-0.00505511 -0.000839015 0.0232164)
(-0.0183777 -0.000766266 0.0339152)
(-0.0331937 -0.000560179 0.0296293)
(-0.0440247 -0.000375735 0.0203245)
(-0.0504927 -0.000239817 0.00891229)
(-0.0523152 -0.000156033 -0.00381893)
(-0.0489057 -0.000112436 -0.0173939)
(-0.0393758 -7.67113e-05 -0.0304242)
(-0.0234197 1.8125e-05 -0.0381747)
(-0.00687114 0.000210396 -0.0275384)
(-0.00504158 -0.000482018 0.0232116)
(-0.0184673 -0.000481436 0.0340712)
(-0.0334936 -0.000356151 0.0298154)
(-0.0444854 -0.000231819 0.020468)
(-0.0510601 -0.000134916 0.00897253)
(-0.0529259 -6.98616e-05 -0.00387355)
(-0.0494824 -3.19097e-05 -0.0175923)
(-0.0398202 -4.24934e-06 -0.0307716)
(-0.023627 3.90983e-05 -0.0385906)
(-0.00690083 9.76344e-05 -0.0277782)
(-0.00501007 -0.000155964 0.0231348)
(-0.0184163 -0.000161977 0.0340148)
(-0.0334693 -0.000120571 0.0297929)
(-0.0444917 -7.73966e-05 0.0204722)
(-0.0510946 -4.27316e-05 0.00899312)
(-0.0529806 -1.85499e-05 -0.00384836)
(-0.0495426 -3.74688e-06 -0.0175764)
(-0.0398645 6.33327e-06 -0.0307759)
(-0.0236329 1.81546e-05 -0.0386115)
(-0.00689138 2.8784e-05 -0.0277916)
(-0.00501007 0.000155973 0.0231348)
(-0.0184163 0.000161956 0.0340148)
(-0.0334693 0.000120576 0.0297929)
(-0.0444917 7.74091e-05 0.0204722)
(-0.0510946 4.27366e-05 0.00899312)
(-0.0529806 1.85476e-05 -0.00384836)
(-0.0495426 3.74275e-06 -0.0175764)
(-0.0398645 -6.34139e-06 -0.0307759)
(-0.0236329 -1.81644e-05 -0.0386115)
(-0.00689138 -2.87805e-05 -0.0277916)
(-0.00504158 0.000482028 0.0232115)
(-0.0184673 0.000481415 0.0340712)
(-0.0334936 0.000356155 0.0298154)
(-0.0444855 0.000231827 0.020468)
(-0.0510601 0.000134914 0.00897252)
(-0.0529259 6.98541e-05 -0.00387356)
(-0.0494824 3.19028e-05 -0.0175923)
(-0.0398202 4.24089e-06 -0.0307716)
(-0.0236271 -3.9107e-05 -0.0385906)
(-0.00690083 -9.76326e-05 -0.0277782)
(-0.00505511 0.000839023 0.0232164)
(-0.0183777 0.000766243 0.0339153)
(-0.0331937 0.000560179 0.0296293)
(-0.0440247 0.000375735 0.0203244)
(-0.0504927 0.000239806 0.00891227)
(-0.0523152 0.000156015 -0.00381895)
(-0.0489057 0.000112425 -0.0173939)
(-0.0393758 7.67034e-05 -0.0304242)
(-0.0234198 -1.81299e-05 -0.0381747)
(-0.00687114 -0.000210393 -0.0275384)
(-0.00472948 0.00115111 0.022163)
(-0.0170552 0.000903868 0.0319264)
(-0.030692 0.000647779 0.0278412)
(-0.0407019 0.000457037 0.0191708)
(-0.046705 0.000329945 0.00856811)
(-0.0484268 0.000268323 -0.00325297)
(-0.0453103 0.000252073 -0.0158619)
(-0.0365287 0.000234434 -0.0279958)
(-0.021809 7.38087e-05 -0.0353569)
(-0.00644572 -0.000393977 -0.0258531)
(-0.00282074 0.000640331 0.0152345)
(-0.0103305 0.000460354 0.0209056)
(-0.0187919 0.000325686 0.0182188)
(-0.0251213 0.000237217 0.0128238)
(-0.0290322 0.000182994 0.00622653)
(-0.0302967 0.000163739 -0.00117838)
(-0.0284949 0.000167791 -0.00915964)
(-0.0230497 0.000168747 -0.0169771)
(-0.0137865 7.22457e-05 -0.0221258)
(-0.00409242 -0.000251522 -0.0172234)
(-0.00410396 -0.000933695 0.0236651)
(-0.0141703 -0.000696808 0.0314951)
(-0.0247702 -0.000484617 0.0270011)
(-0.0324913 -0.000330174 0.0189998)
(-0.0374241 -0.000228096 0.00961683)
(-0.0395569 -0.00018059 -0.000848903)
(-0.0383338 -0.000176728 -0.0124512)
(-0.0325304 -0.000193326 -0.0246304)
(-0.0210831 -9.2677e-05 -0.0338385)
(-0.00686586 0.000258882 -0.0281309)
(-0.00678198 -0.00166457 0.0340932)
(-0.0232185 -0.00133453 0.047677)
(-0.0403363 -0.000927916 0.0409106)
(-0.0525638 -0.000600495 0.0281404)
(-0.0601328 -0.000368529 0.0131159)
(-0.0631211 -0.000239063 -0.00354558)
(-0.0607917 -0.000197055 -0.0218511)
(-0.0513535 -0.000201841 -0.0407316)
(-0.0331898 -5.19513e-05 -0.0540281)
(-0.0107282 0.000417803 -0.042239)
(-0.00722278 -0.0011959 0.0356551)
(-0.0249417 -0.00109122 0.0505714)
(-0.0435371 -0.000758948 0.0435029)
(-0.0567777 -0.000449175 0.0298431)
(-0.0649448 -0.000211716 0.0137039)
(-0.0681367 -5.69432e-05 -0.00422036)
(-0.06558 1.80564e-05 -0.0239241)
(-0.0553485 4.20788e-05 -0.0442141)
(-0.0356947 0.000106965 -0.0582965)
(-0.011484 0.000246053 -0.0450487)
(-0.00719543 -0.000677306 0.0356624)
(-0.0250247 -0.000669 0.0508221)
(-0.0438737 -0.00046609 0.0438157)
(-0.0573164 -0.000260545 0.0301146)
(-0.0656291 -9.64295e-05 0.0138737)
(-0.0689038 1.65737e-05 -0.00420181)
(-0.0663496 7.62505e-05 -0.0241104)
(-0.0559981 9.81867e-05 -0.0446456)
(-0.0360788 0.000118251 -0.0588943)
(-0.0115855 0.00012905 -0.0454752)
(-0.00714784 -0.000217153 0.035561)
(-0.0249388 -0.000222268 0.0507581)
(-0.0438142 -0.000155203 0.0438111)
(-0.0572963 -8.44362e-05 0.030157)
(-0.0656508 -2.66214e-05 0.0139458)
(-0.0689622 1.41361e-05 -0.00411873)
(-0.0664316 3.67035e-05 -0.0240409)
(-0.056077 4.51286e-05 -0.0446153)
(-0.0361233 4.83486e-05 -0.0589101)
(-0.0115946 4.12264e-05 -0.0455122)
(-0.00714784 0.000217159 0.035561)
(-0.0249388 0.000222258 0.0507581)
(-0.0438142 0.000155211 0.0438111)
(-0.0572963 8.4447e-05 0.030157)
(-0.0656508 2.66239e-05 0.0139458)
(-0.0689622 -1.41387e-05 -0.00411874)
(-0.0664316 -3.67028e-05 -0.0240409)
(-0.056077 -4.51306e-05 -0.0446153)
(-0.0361233 -4.83534e-05 -0.0589101)
(-0.0115946 -4.12196e-05 -0.0455122)
(-0.00719544 0.000677313 0.0356624)
(-0.0250247 0.000668991 0.0508222)
(-0.0438737 0.000466098 0.0438157)
(-0.0573164 0.000260553 0.0301146)
(-0.0656291 9.64274e-05 0.0138737)
(-0.0689038 -1.65793e-05 -0.00420181)
(-0.0663496 -7.62504e-05 -0.0241104)
(-0.0559981 -9.81873e-05 -0.0446456)
(-0.0360788 -0.000118254 -0.0588942)
(-0.0115855 -0.000129044 -0.0454752)
(-0.00722278 0.00119591 0.0356551)
(-0.0249417 0.00109122 0.0505714)
(-0.0435371 0.000758956 0.0435029)
(-0.0567778 0.000449177 0.0298431)
(-0.0649448 0.000211705 0.0137039)
(-0.0681367 5.69307e-05 -0.00422036)
(-0.06558 -1.80541e-05 -0.0239241)
(-0.0553485 -4.20722e-05 -0.0442141)
(-0.0356947 -0.000106961 -0.0582965)
(-0.011484 -0.000246042 -0.0450487)
(-0.00678198 0.00166459 0.0340933)
(-0.0232185 0.00133454 0.047677)
(-0.0403363 0.000927931 0.0409106)
(-0.0525638 0.000600494 0.0281404)
(-0.0601328 0.000368511 0.0131159)
(-0.0631211 0.000239044 -0.00354558)
(-0.0607916 0.000197059 -0.0218511)
(-0.0513535 0.000201857 -0.0407316)
(-0.0331898 5.19636e-05 -0.0540281)
(-0.0107282 -0.000417794 -0.042239)
(-0.00410395 0.000933706 0.0236651)
(-0.0141703 0.000696817 0.0314951)
(-0.0247702 0.000484623 0.0270011)
(-0.0324913 0.000330169 0.0189998)
(-0.0374241 0.000228082 0.00961682)
(-0.0395569 0.000180575 -0.00084892)
(-0.0383338 0.000176731 -0.0124512)
(-0.0325304 0.000193343 -0.0246304)
(-0.0210831 9.26929e-05 -0.0338385)
(-0.00686585 -0.000258874 -0.0281309)
(-0.00653827 -0.0013978 0.0359775)
(-0.0205883 -0.00103823 0.0455149)
(-0.0336165 -0.000651472 0.0379258)
(-0.0426445 -0.000356119 0.0265444)
(-0.0486307 -0.000155267 0.0140802)
(-0.0520436 -3.43706e-05 0.000428083)
(-0.0523341 3.09e-07 -0.0152519)
(-0.0473465 -5.11315e-05 -0.0333113)
(-0.034254 -1.15161e-05 -0.0494699)
(-0.0124602 0.000165346 -0.0458928)
(-0.0105283 -0.00245007 0.0511682)
(-0.0332367 -0.00193358 0.0682465)
(-0.054402 -0.00120893 0.0570428)
(-0.0687561 -0.00060849 0.0390847)
(-0.0779108 -0.000174711 0.0192272)
(-0.0827484 0.000101985 -0.00247042)
(-0.0825726 0.000210307 -0.0271822)
(-0.07419 0.000151478 -0.0551788)
(-0.0534362 0.000170037 -0.0788696)
(-0.0192038 0.000290426 -0.0690428)
(-0.0111504 -0.00170942 0.0533701)
(-0.0355278 -0.00151744 0.0722548)
(-0.0585356 -0.000943794 0.0606325)
(-0.0741148 -0.000408065 0.0415192)
(-0.084017 5.49687e-06 0.0202471)
(-0.0892115 0.000285102 -0.00305878)
(-0.0889793 0.00041942 -0.0296306)
(-0.0798909 0.000406764 -0.0597376)
(-0.057503 0.000348076 -0.0849725)
(-0.0206014 0.000219712 -0.073728)
(-0.0110973 -0.000945631 0.0533865)
(-0.0355782 -0.00090556 0.0726251)
(-0.0588888 -0.000563656 0.0611283)
(-0.0747256 -0.000220963 0.0419992)
(-0.0848283 5.29444e-05 0.0206269)
(-0.0901648 0.000245197 -0.00285179)
(-0.0900094 0.000343605 -0.0296775)
(-0.0808679 0.000345648 -0.0601577)
(-0.0582427 0.000288512 -0.0857454)
(-0.0208709 0.000144833 -0.0744763)
(-0.0110233 -0.000299232 0.0532542)
(-0.035432 -0.000296959 0.0725556)
(-0.0587657 -0.000185485 0.0611595)
(-0.0746567 -6.95751e-05 0.0421106)
(-0.0848219 2.50361e-05 0.0207912)
(-0.0902215 9.2793e-05 -0.00266435)
(-0.0901245 0.000127738 -0.029499)
(-0.0810143 0.000129561 -0.0600426)
(-0.0583807 0.000107159 -0.0857301)
(-0.020931 5.15531e-05 -0.0745607)
(-0.0110233 0.000299233 0.0532542)
(-0.035432 0.000296955 0.0725556)
(-0.0587657 0.00018549 0.0611595)
(-0.0746567 6.958e-05 0.0421106)
(-0.0848219 -2.50373e-05 0.0207912)
(-0.0902215 -9.27925e-05 -0.00266435)
(-0.0901245 -0.000127727 -0.029499)
(-0.0810143 -0.00012955 -0.0600426)
(-0.0583807 -0.000107155 -0.0857301)
(-0.020931 -5.15438e-05 -0.0745607)
(-0.0110973 0.000945635 0.0533865)
(-0.0355782 0.000905558 0.0726251)
(-0.0588888 0.00056366 0.0611283)
(-0.0747257 0.000220964 0.0419992)
(-0.0848283 -5.2949e-05 0.0206269)
(-0.0901647 -0.000245198 -0.00285179)
(-0.0900094 -0.000343595 -0.0296775)
(-0.0808679 -0.000345639 -0.0601577)
(-0.0582427 -0.00028851 -0.0857454)
(-0.0208709 -0.000144825 -0.0744763)
(-0.0111504 0.00170943 0.0533701)
(-0.0355278 0.00151744 0.0722548)
(-0.0585356 0.000943794 0.0606325)
(-0.0741148 0.000408055 0.0415192)
(-0.084017 -5.5092e-06 0.0202471)
(-0.0892115 -0.000285107 -0.00305878)
(-0.0889792 -0.000419405 -0.0296306)
(-0.0798909 -0.000406749 -0.0597376)
(-0.057503 -0.000348069 -0.0849725)
(-0.0206014 -0.000219698 -0.073728)
(-0.0105283 0.00245009 0.0511682)
(-0.0332367 0.0019336 0.0682466)
(-0.054402 0.00120893 0.0570428)
(-0.0687561 0.000608472 0.0390847)
(-0.0779108 0.000174688 0.0192271)
(-0.0827484 -0.000101993 -0.00247043)
(-0.0825726 -0.00021028 -0.0271822)
(-0.07419 -0.000151447 -0.0551788)
(-0.0534362 -0.000170026 -0.0788696)
(-0.0192038 -0.000290423 -0.0690428)
(-0.00653827 0.00139782 0.0359775)
(-0.0205883 0.00103824 0.0455149)
(-0.0336165 0.000651469 0.0379258)
(-0.0426445 0.000356101 0.0265444)
(-0.0486307 0.000155248 0.0140802)
(-0.0520436 3.43641e-05 0.000428061)
(-0.0523341 -2.87901e-07 -0.0152519)
(-0.0473465 5.11629e-05 -0.0333112)
(-0.034254 1.1532e-05 -0.0494699)
(-0.0124602 -0.000165343 -0.0458928)
(-0.0114114 -0.00212198 0.0555408)
(-0.0315172 -0.00148187 0.0638912)
(-0.0458293 -0.000689688 0.0506555)
(-0.0548051 -0.000100647 0.034834)
(-0.0610122 0.000294469 0.0192603)
(-0.0657603 0.000572482 0.00296672)
(-0.068858 0.000758777 -0.0164296)
(-0.0670934 0.000732183 -0.0416413)
(-0.0556027 0.000620146 -0.0689442)
(-0.0224124 3.03924e-05 -0.0763362)
(-0.0176885 -0.00363943 0.0777121)
(-0.0496376 -0.00269791 0.0950659)
(-0.0733343 -0.001282 0.0759687)
(-0.0877058 -0.000149083 0.0513959)
(-0.0969857 0.000652468 0.0267527)
(-0.103422 0.00122383 0.000880629)
(-0.106896 0.00159436 -0.0296206)
(-0.102671 0.0015607 -0.0688047)
(-0.0838941 0.00127832 -0.109482)
(-0.0327157 6.4761e-05 -0.115274)
(-0.0185943 -0.00243948 0.0808228)
(-0.0526794 -0.00204399 0.100513)
(-0.0785397 -0.00101031 0.0808082)
(-0.0942356 -8.22179e-05 0.0548049)
(-0.104287 0.000618964 0.028502)
(-0.111134 0.00111662 0.000779528)
(-0.114732 0.00141222 -0.0319408)
(-0.109998 0.00137127 -0.0740919)
(-0.0897384 0.00104766 -0.11759)
(-0.0347689 0.000125664 -0.123267)
(-0.0184961 -0.00130695 0.0808671)
(-0.05264 -0.00119044 0.101052)
(-0.0788408 -0.000607791 0.0815605)
(-0.0948531 -4.38199e-05 0.0555834)
(-0.10516 0.00040154 0.0292025)
(-0.112203 0.00071778 0.00132035)
(-0.115977 0.000900367 -0.0316748)
(-0.111321 0.000877052 -0.0743541)
(-0.0909752 0.000660568 -0.118503)
(-0.0352851 0.000128001 -0.124648)
(-0.0183807 -0.00040661 0.0807014)
(-0.052394 -0.000385864 0.100983)
(-0.0786086 -0.000201291 0.0816453)
(-0.0946983 -1.53094e-05 0.0557892)
(-0.1051 0.000135053 0.0294911)
(-0.112238 0.000241838 0.00165605)
(-0.116121 0.000302297 -0.0313383)
(-0.111564 0.000294288 -0.0741111)
(-0.0912826 0.000220769 -0.118442)
(-0.0354443 5.29886e-05 -0.124856)
(-0.0183807 0.000406606 0.0807014)
(-0.052394 0.000385856 0.100983)
(-0.0786086 0.000201285 0.0816453)
(-0.0946983 1.5304e-05 0.0557892)
(-0.1051 -0.000135059 0.0294911)
(-0.112238 -0.000241835 0.00165605)
(-0.116121 -0.000302278 -0.0313383)
(-0.111564 -0.000294281 -0.0741111)
(-0.0912826 -0.000220779 -0.118442)
(-0.0354444 -5.29853e-05 -0.124856)
(-0.0184961 0.00130695 0.0808671)
(-0.05264 0.00119043 0.101052)
(-0.0788408 0.000607782 0.0815605)
(-0.0948531 4.38101e-05 0.0555834)
(-0.10516 -0.000401546 0.0292025)
(-0.112203 -0.000717778 0.00132036)
(-0.115977 -0.000900354 -0.0316747)
(-0.111321 -0.000877048 -0.0743541)
(-0.0909753 -0.00066058 -0.118503)
(-0.0352851 -0.000127995 -0.124648)
(-0.0185943 0.00243948 0.0808228)
(-0.0526795 0.00204399 0.100513)
(-0.0785397 0.00101029 0.0808082)
(-0.0942356 8.21995e-05 0.0548049)
(-0.104287 -0.000618973 0.028502)
(-0.111134 -0.00111662 0.000779546)
(-0.114732 -0.0014122 -0.0319408)
(-0.109998 -0.00137127 -0.0740919)
(-0.0897384 -0.00104767 -0.11759)
(-0.0347689 -0.000125661 -0.123267)
(-0.0176885 0.00363945 0.0777121)
(-0.0496376 0.00269791 0.0950659)
(-0.0733343 0.00128198 0.0759687)
(-0.0877058 0.000149054 0.0513959)
(-0.0969857 -0.000652483 0.0267527)
(-0.103422 -0.00122382 0.00088065)
(-0.106896 -0.00159432 -0.0296206)
(-0.102672 -0.00156069 -0.0688047)
(-0.0838942 -0.00127834 -0.109482)
(-0.0327158 -6.47771e-05 -0.115274)
(-0.0114114 0.00212199 0.0555408)
(-0.0315172 0.00148187 0.0638912)
(-0.0458293 0.000689671 0.0506555)
(-0.0548051 0.000100621 0.034834)
(-0.0610122 -0.000294482 0.0192603)
(-0.0657603 -0.000572474 0.00296671)
(-0.068858 -0.000758748 -0.0164296)
(-0.0670935 -0.000732162 -0.0416413)
(-0.0556027 -0.000620155 -0.0689442)
(-0.0224124 -3.0409e-05 -0.0763362)
(-0.0212427 -0.00300935 0.0837376)
(-0.0484886 -0.00177916 0.0837767)
(-0.056503 -0.000232515 0.0618499)
(-0.0602081 0.000810444 0.0410301)
(-0.0632209 0.00146008 0.0232904)
(-0.0674296 0.00202133 0.00630305)
(-0.0735709 0.00271963 -0.0153435)
(-0.0776224 0.00299154 -0.04909)
(-0.0769059 0.00291586 -0.0938578)
(-0.0315251 -0.000180384 -0.132621)
(-0.0316761 -0.00507257 0.113754)
(-0.0742294 -0.00327361 0.124146)
(-0.088993 -0.000643149 0.093323)
(-0.0946632 0.0012951 0.061461)
(-0.0978699 0.00259738 0.0336107)
(-0.101751 0.0036856 0.00658861)
(-0.107655 0.00484964 -0.0272696)
(-0.109303 0.00521413 -0.0799484)
(-0.104962 0.0047942 -0.146951)
(-0.0387047 -0.000484802 -0.197952)
(-0.033092 -0.00333808 0.117598)
(-0.0782041 -0.00256081 0.131147)
(-0.0947219 -0.000793069 0.0994966)
(-0.101082 0.000703908 0.0659377)
(-0.104427 0.00180798 0.0363124)
(-0.108145 0.00266627 0.00741995)
(-0.113874 0.00334861 -0.0288196)
(-0.114786 0.00340283 -0.085612)
(-0.109937 0.0027562 -0.157326)
(-0.0397683 -0.00024243 -0.211555)
(-0.0329328 -0.00175401 0.117605)
(-0.0779845 -0.0015042 0.131842)
(-0.0947789 -0.000565343 0.100529)
(-0.101432 0.000302045 0.067017)
(-0.104993 0.000980566 0.0373346)
(-0.108862 0.0014934 0.00830395)
(-0.114798 0.00183168 -0.0281842)
(-0.115872 0.00180783 -0.0858044)
(-0.111366 0.00135992 -0.158655)
(-0.0403885 -3.61037e-05 -0.214288)
(-0.0327573 -0.0005388 0.117392)
(-0.0775864 -0.000487897 0.131756)
(-0.0943747 -0.000200861 0.100662)
(-0.101131 7.83661e-05 0.0673001)
(-0.104814 0.000303475 0.0377189)
(-0.10881 0.000471861 0.00875195)
(-0.114911 0.000572718 -0.0277155)
(-0.116164 0.000557614 -0.0855175)
(-0.111877 0.000406434 -0.158702)
(-0.0406792 1.28387e-05 -0.214846)
(-0.0327573 0.000538791 0.117392)
(-0.0775864 0.000487885 0.131756)
(-0.0943747 0.000200846 0.100662)
(-0.101131 -7.83789e-05 0.0673001)
(-0.104814 -0.000303478 0.0377189)
(-0.10881 -0.000471845 0.00875195)
(-0.114911 -0.000572704 -0.0277155)
(-0.116164 -0.000557621 -0.0855175)
(-0.111877 -0.000406444 -0.158702)
(-0.0406792 -1.28362e-05 -0.214846)
(-0.0329328 0.001754 0.117605)
(-0.0779845 0.00150419 0.131842)
(-0.0947789 0.000565325 0.100529)
(-0.101432 -0.000302058 0.067017)
(-0.104993 -0.000980565 0.0373346)
(-0.108862 -0.00149339 0.00830397)
(-0.114798 -0.00183167 -0.0281842)
(-0.115872 -0.00180783 -0.0858044)
(-0.111366 -0.00135993 -0.158655)
(-0.0403885 3.61072e-05 -0.214288)
(-0.033092 0.00333807 0.117598)
(-0.0782041 0.0025608 0.131147)
(-0.0947219 0.000793051 0.0994966)
(-0.101082 -0.000703918 0.0659377)
(-0.104427 -0.00180797 0.0363125)
(-0.108145 -0.00266625 0.00741999)
(-0.113874 -0.0033486 -0.0288196)
(-0.114786 -0.00340284 -0.085612)
(-0.109937 -0.00275622 -0.157326)
(-0.0397683 0.000242424 -0.211555)
(-0.0316761 0.00507258 0.113754)
(-0.0742294 0.0032736 0.124146)
(-0.088993 0.000643132 0.093323)
(-0.0946632 -0.00129512 0.061461)
(-0.0978699 -0.00259737 0.0336107)
(-0.101751 -0.00368557 0.00658866)
(-0.107655 -0.00484962 -0.0272697)
(-0.109303 -0.00521415 -0.0799484)
(-0.104962 -0.00479423 -0.146951)
(-0.0387047 0.000484794 -0.197952)
(-0.0212427 0.00300936 0.0837376)
(-0.0484886 0.00177915 0.0837767)
(-0.056503 0.000232501 0.0618499)
(-0.0602081 -0.000810456 0.04103)
(-0.0632209 -0.00146007 0.0232904)
(-0.0674296 -0.0020213 0.00630307)
(-0.0735709 -0.00271961 -0.0153436)
(-0.0776224 -0.00299154 -0.04909)
(-0.0769059 -0.00291588 -0.0938578)
(-0.0315251 0.000180374 -0.132621)
(-0.0276181 -0.00517505 0.156928)
(-0.0421165 -0.00237527 0.0982162)
(-0.0196208 0.000605555 0.0582159)
(-0.00625216 0.00219326 0.0352774)
(0.00118415 0.00307747 0.0192388)
(0.0019181 0.00392682 0.00462187)
(-0.00595143 0.00542722 -0.0160195)
(-0.0165907 0.00562254 -0.0564142)
(-0.0486678 0.005804 -0.126713)
(-0.00545524 -0.00339827 -0.209929)
(-0.044524 -0.00829689 0.209401)
(-0.0644083 -0.00430436 0.143729)
(-0.032603 0.000398288 0.088959)
(-0.0100134 0.00327579 0.0547901)
(0.00546493 0.00506315 0.0297953)
(0.0125574 0.00666538 0.00708111)
(0.00792108 0.0089979 -0.0239858)
(0.00244637 0.00920669 -0.0839368)