/*--------------------------------*- C++ -*----------------------------------*\
  =========                 |
  \\      /  F ield         | OpenFOAM: The Open Source CFD Toolbox
   \\    /   O peration     | Website:  https://openfoam.org
    \\  /    A nd           | Version:  9
     \\/     M anipulation  |
\*---------------------------------------------------------------------------*/
FoamFile
{
    format      ascii;
    class       surfaceScalarField;
    location    "0.45";
    object      phi;
}
// * * * * * * * * * * * * * * * * * * * * * * * * * * * * * * * * * * * * * //

dimensions      [0 3 -1 0 0 0 0];

internalField   nonuniform List<scalar> 
2700
(
-6.89627e-08
-8.94911e-08
1.58487e-07
-3.18767e-07
-9.28433e-08
3.42648e-07
-6.37382e-07
-9.11475e-08
4.09763e-07
-9.42225e-07
-1.09972e-07
4.14815e-07
-1.15312e-06
-1.56905e-07
3.67805e-07
-1.18158e-06
-2.27448e-07
2.55907e-07
-9.65054e-07
-2.98571e-07
8.20412e-08
-5.3925e-07
-3.25703e-07
-1.00101e-07
-1.09202e-07
-2.63837e-07
-1.6621e-07
-8.57854e-08
-2.34164e-08
-1.68965e-07
-1.88522e-07
2.67996e-07
-6.87794e-07
-2.40735e-07
6.66721e-07
-1.32784e-06
-2.5468e-07
8.03575e-07
-1.91782e-06
-2.9007e-07
7.70079e-07
-2.30419e-06
-3.63662e-07
5.93131e-07
-2.32861e-06
-4.6628e-07
2.63246e-07
-1.88569e-06
-5.59067e-07
-1.82422e-07
-1.05873e-06
-5.76276e-07
-5.76386e-07
-2.39905e-07
-4.62387e-07
-6.20277e-07
-1.86376e-07
-1.39314e-07
-2.3566e-07
-2.00868e-07
2.48006e-07
-9.21485e-07
-2.7836e-07
7.23451e-07
-1.75409e-06
-3.01944e-07
8.7987e-07
-2.50811e-06
-3.37506e-07
8.01453e-07
-2.98479e-06
-4.04245e-07
5.17265e-07
-2.98478e-06
-4.9422e-07
2.79289e-08
-2.37748e-06
-5.65304e-07
-6.01063e-07
-1.29163e-06
-5.66376e-07
-1.09575e-06
-2.6025e-07
-4.53671e-07
-1.0401e-06
-2.00029e-07
-2.46598e-07
-2.74706e-07
-1.25382e-07
1.99221e-07
-1.06097e-06
-1.79953e-07
6.87853e-07
-2.00929e-06
-1.97108e-07
8.43491e-07
-2.86009e-06
-2.18452e-07
7.31742e-07
-3.3861e-06
-2.56135e-07
3.77898e-07
-3.35333e-06
-3.05007e-07
-2.21982e-07
-2.63168e-06
-3.42144e-07
-9.44803e-07
-1.38224e-06
-3.38077e-07
-1.47774e-06
-2.39489e-07
-2.70997e-07
-1.32543e-06
-1.24752e-07
-3.14766e-07
-2.92743e-07
1.74567e-12
1.6736e-07
-1.12601e-06
1.30073e-12
6.53315e-07
-2.12871e-06
9.81785e-13
8.05587e-07
-3.02438e-06
7.66721e-13
6.77216e-07
-3.57086e-06
5.8192e-13
2.9035e-07
-3.51967e-06
5.01958e-13
-3.56198e-07
-2.7384e-06
3.99914e-13
-1.12341e-06
-1.41006e-06
3.16748e-13
-1.66642e-06
-2.2068e-07
2.91236e-13
-1.46038e-06
2.84782e-13
-3.45431e-07
-2.92743e-07
1.25386e-07
1.6736e-07
-1.12601e-06
1.79955e-07
6.53315e-07
-2.12871e-06
1.9711e-07
8.05587e-07
-3.02438e-06
2.18454e-07
6.77216e-07
-3.57086e-06
2.56136e-07
2.9035e-07
-3.51967e-06
3.05008e-07
-3.56198e-07
-2.7384e-06
3.42145e-07
-1.12341e-06
-1.41006e-06
3.38078e-07
-1.66642e-06
-2.20679e-07
2.70998e-07
-1.46038e-06
1.24752e-07
-3.45431e-07
-2.74706e-07
2.00871e-07
1.9922e-07
-1.06097e-06
2.78363e-07
6.87854e-07
-2.00929e-06
3.01945e-07
8.43492e-07
-2.86009e-06
3.37507e-07
7.31742e-07
-3.3861e-06
4.04246e-07
3.77898e-07
-3.35333e-06
4.94221e-07
-2.21982e-07
-2.63168e-06
5.65305e-07
-9.44803e-07
-1.38224e-06
5.66377e-07
-1.47774e-06
-2.39489e-07
4.53672e-07
-1.32543e-06
2.00029e-07
-3.14766e-07
-2.35661e-07
1.88527e-07
2.48006e-07
-9.21487e-07
2.40738e-07
7.23451e-07
-1.75409e-06
2.54681e-07
8.7987e-07
-2.50811e-06
2.90071e-07
8.01453e-07
-2.98479e-06
3.63663e-07
5.17265e-07
-2.98478e-06
4.66281e-07
2.79287e-08
-2.37748e-06
5.59067e-07
-6.01063e-07
-1.29163e-06
5.76276e-07
-1.09575e-06
-2.6025e-07
4.62387e-07
-1.0401e-06
1.86377e-07
-2.46598e-07
-1.68967e-07
8.95008e-08
2.67993e-07
-6.87797e-07
9.28465e-08
6.66721e-07
-1.32784e-06
9.11491e-08
8.03575e-07
-1.91782e-06
1.09972e-07
7.70079e-07
-2.30419e-06
1.56906e-07
5.93131e-07
-2.32861e-06
2.27449e-07
2.63246e-07
-1.88569e-06
2.98571e-07
-1.82422e-07
-1.05873e-06
3.25703e-07
-5.76386e-07
-2.39905e-07
2.63838e-07
-6.20277e-07
8.57854e-08
-1.39314e-07
-6.89749e-08
1.58476e-07
-3.18773e-07
3.42645e-07
-6.37385e-07
4.09762e-07
-9.42227e-07
4.14815e-07
-1.15313e-06
3.67805e-07
-1.18158e-06
2.55907e-07
-9.65055e-07
8.20411e-08
-5.3925e-07
-1.00101e-07
-1.09202e-07
-1.6621e-07
-2.34166e-08
-2.24924e-07
-2.37348e-07
6.20759e-07
-7.26736e-07
-3.02138e-07
1.1466e-06
-1.31687e-06
-3.13087e-07
1.31299e-06
-1.86602e-06
-3.2561e-07
1.28957e-06
-2.24277e-06
-3.60546e-07
1.10509e-06
-2.30185e-06
-4.17919e-07
7.32907e-07
-1.93522e-06
-4.73537e-07
1.88948e-07
-1.17386e-06
-4.72399e-07
-3.89057e-07
-3.33025e-07
-3.51965e-07
-6.55083e-07
-7.11564e-08
-2.85285e-07
-5.86902e-07
-4.15985e-07
1.03354e-06
-1.75661e-06
-5.86839e-07
2.12113e-06
-3.0823e-06
-6.23284e-07
2.43946e-06
-4.25728e-06
-6.48663e-07
2.26811e-06
-5.00114e-06
-7.04833e-07
1.68127e-06
-5.04154e-06
-7.88359e-07
6.74092e-07
-4.19561e-06
-8.61067e-07
-6.40827e-07
-2.56992e-06
-8.35495e-07
-1.83898e-06
-8.05075e-07
-6.34111e-07
-2.10298e-06
-2.02586e-07
-8.1296e-07
-8.33883e-07
-4.10915e-07
1.07682e-06
-2.44859e-06
-6.11286e-07
2.3626e-06
-4.23992e-06
-6.582e-07
2.70612e-06
-5.78293e-06
-6.84474e-07
2.38027e-06
-6.70532e-06
-7.3526e-07
1.47009e-06
-6.6809e-06
-8.07369e-07
2.2519e-08
-5.48094e-06
-8.54704e-07
-1.80739e-06
-3.3025e-06
-8.14122e-07
-3.29556e-06
-1.00975e-06
-6.25239e-07
-3.34172e-06
-2.37778e-07
-1.22116e-06
-9.79019e-07
-2.47757e-07
1.01508e-06
-2.86407e-06
-3.78407e-07
2.34002e-06
-4.9326e-06
-4.10166e-07
2.66399e-06
-6.68359e-06
-4.25862e-07
2.22412e-06
-7.69249e-06
-4.53699e-07
1.10523e-06
-7.592e-06
-4.91565e-07
-6.38275e-07
-6.15582e-06
-5.1159e-07
-2.7241e-06
-3.64403e-06
-4.8226e-07
-4.32139e-06
-1.07161e-06
-3.73285e-07
-4.1498e-06
-1.53472e-07
-1.47068e-06
-1.04448e-06
1.41056e-12
9.64078e-07
-3.05575e-06
6.63314e-13
2.28618e-06
-5.25282e-06
3.9915e-13
2.59249e-06
-7.097e-06
3.59483e-13
2.09554e-06
-8.1395e-06
3.78897e-13
8.79149e-07
-7.99285e-06
3.80634e-13
-9.94416e-07
-6.43895e-06
3.25507e-13
-3.1889e-06
-3.7726e-06
2.41924e-13
-4.81503e-06
-1.08283e-06
2.37171e-13
-4.52343e-06
2.302e-13
-1.58174e-06
-1.04448e-06
2.4776e-07
9.64078e-07
-3.05575e-06
3.78408e-07
2.28618e-06
-5.25282e-06
4.10167e-07
2.59249e-06
-7.097e-06
4.25863e-07
2.09554e-06
-8.1395e-06
4.53699e-07
8.79149e-07
-7.99285e-06
4.91566e-07
-9.94415e-07
-6.43895e-06
5.1159e-07
-3.1889e-06
-3.7726e-06
4.8226e-07
-4.81503e-06
-1.08283e-06
3.73286e-07
-4.52343e-06
1.53472e-07
-1.58174e-06
-9.79019e-07
4.10918e-07
1.01508e-06
-2.86407e-06
6.11287e-07
2.34002e-06
-4.9326e-06
6.582e-07
2.66399e-06
-6.68359e-06
6.84474e-07
2.22412e-06
-7.69249e-06
7.35261e-07
1.10523e-06
-7.592e-06
8.0737e-07
-6.38275e-07
-6.15582e-06
8.54704e-07
-2.7241e-06
-3.64403e-06
8.14123e-07
-4.32139e-06
-1.07161e-06
6.25239e-07
-4.1498e-06
2.37778e-07
-1.47068e-06
-8.33883e-07
4.15988e-07
1.07682e-06
-2.44859e-06
5.8684e-07
2.3626e-06
-4.23992e-06
6.23284e-07
2.70612e-06
-5.78293e-06
6.48664e-07
2.38027e-06
-6.70532e-06
7.04834e-07
1.47009e-06
-6.6809e-06
7.8836e-07
2.25191e-08
-5.48094e-06
8.61067e-07
-1.80739e-06
-3.3025e-06
8.35496e-07
-3.29556e-06
-1.00975e-06
6.34111e-07
-3.34172e-06
2.02586e-07
-1.22116e-06
-5.86902e-07
2.37351e-07
1.03353e-06
-1.75661e-06
3.02139e-07
2.12113e-06
-3.0823e-06
3.13088e-07
2.43946e-06
-4.25728e-06
3.25611e-07
2.26811e-06
-5.00114e-06
3.60547e-07
1.68127e-06
-5.04154e-06
4.1792e-07
6.74092e-07
-4.19561e-06
4.73537e-07
-6.40827e-07
-2.56992e-06
4.72399e-07
-1.83897e-06
-8.05075e-07
3.51966e-07
-2.10298e-06
7.11565e-08
-8.1296e-07
-2.24927e-07
6.20754e-07
-7.26739e-07
1.1466e-06
-1.31688e-06
1.31299e-06
-1.86602e-06
1.28957e-06
-2.24277e-06
1.10509e-06
-2.30185e-06
7.32907e-07
-1.93522e-06
1.88948e-07
-1.17386e-06
-3.89057e-07
-3.33024e-07
-6.55082e-07
-2.85285e-07
-3.36736e-07
-3.67952e-07
1.32545e-06
-1.0109e-06
-4.7744e-07
2.2982e-06
-1.78094e-06
-4.84236e-07
2.56726e-06
-2.51308e-06
-4.66656e-07
2.48837e-06
-3.06766e-06
-4.6056e-07
2.12024e-06
-3.25972e-06
-4.79698e-07
1.40466e-06
-2.89861e-06
-5.09823e-07
3.37663e-07
-1.92152e-06
-5.0533e-07
-8.60821e-07
-6.57818e-07
-3.77725e-07
-1.54106e-06
-3.65563e-08
-9.06547e-07
-9.23408e-07
-6.1573e-07
2.20472e-06
-2.5925e-06
-8.70767e-07
4.18355e-06
-4.42448e-06
-8.93762e-07
4.68097e-06
-6.05848e-06
-8.56945e-07
4.2924e-06
-7.17067e-06
-8.2903e-07
3.16193e-06
-7.4073e-06
-8.2919e-07
1.26022e-06
-6.44971e-06
-8.35592e-07
-1.27265e-06
-4.2596e-06
-7.94801e-07
-3.73961e-06
-1.53623e-06
-6.0678e-07
-4.5973e-06
-1.48718e-07
-2.23703e-06
-1.34095e-06
-5.90352e-07
2.39239e-06
-3.70217e-06
-8.7414e-07
4.7272e-06
-6.22858e-06
-9.03713e-07
5.24247e-06
-8.39637e-06
-8.61675e-07
4.5528e-06
-9.769e-06
-8.18659e-07
2.83234e-06
-9.91566e-06
-7.90111e-07
1.30096e-07
-8.48793e-06
-7.61521e-07
-3.30918e-06
-5.51548e-06
-7.03876e-07
-6.35894e-06
-1.95511e-06
-5.48863e-07
-6.96e-06
-1.84219e-07
-3.14077e-06
-1.59208e-06
-3.49637e-07
2.36644e-06
-4.37734e-06
-5.30096e-07
4.78125e-06
-7.31455e-06
-5.49865e-07
5.24735e-06
-9.77283e-06
-5.21755e-07
4.34248e-06
-1.12509e-05
-4.8908e-07
2.25368e-06
-1.1286e-05
-4.60616e-07
-9.32583e-07
-9.53868e-06
-4.30456e-07
-4.80252e-06
-6.10921e-06
-3.91198e-07
-8.06354e-06
-2.11636e-06
-3.10341e-07
-8.38117e-06
-1.19762e-07
-3.6515e-06
-1.70614e-06
1.19337e-12
2.32058e-06
-4.68866e-06
4.41952e-13
4.7386e-06
-7.81357e-06
1.86619e-13
5.16754e-06
-1.03969e-05
2.06826e-13
4.15715e-06
-1.19078e-05
2.92731e-13
1.90095e-06
-1.18729e-05
3.13921e-13
-1.48999e-06
-9.96842e-06
2.80207e-13
-5.52382e-06
-6.33514e-06
2.67947e-13
-8.8395e-06
-2.1662e-06
2.57959e-13
-9.00272e-06
2.44091e-13
-3.8677e-06
-1.70614e-06
3.49639e-07
2.32058e-06
-4.68866e-06
5.30097e-07
4.7386e-06
-7.81357e-06
5.49865e-07
5.16754e-06
-1.03969e-05
5.21756e-07
4.15715e-06
-1.19078e-05
4.8908e-07
1.90095e-06
-1.18729e-05
4.60617e-07
-1.48999e-06
-9.96842e-06
4.30456e-07
-5.52382e-06
-6.33514e-06
3.91199e-07
-8.8395e-06
-2.1662e-06
3.10342e-07
-9.00272e-06
1.19763e-07
-3.8677e-06
-1.59207e-06
5.90354e-07
2.36644e-06
-4.37734e-06
8.7414e-07
4.78125e-06
-7.31455e-06
9.03713e-07
5.24735e-06
-9.77283e-06
8.61675e-07
4.34248e-06
-1.12509e-05
8.18659e-07
2.25368e-06
-1.1286e-05
7.90111e-07
-9.32583e-07
-9.53868e-06
7.61522e-07
-4.80252e-06
-6.10921e-06
7.03877e-07
-8.06354e-06
-2.11636e-06
5.48863e-07
-8.38117e-06
1.8422e-07
-3.6515e-06
-1.34095e-06
6.15731e-07
2.39239e-06
-3.70217e-06
8.70767e-07
4.7272e-06
-6.22858e-06
8.93762e-07
5.24247e-06
-8.39637e-06
8.56945e-07
4.5528e-06
-9.769e-06
8.2903e-07
2.83234e-06
-9.91566e-06
8.2919e-07
1.30096e-07
-8.48793e-06
8.35593e-07
-3.30918e-06
-5.51548e-06
7.94802e-07
-6.35894e-06
-1.95511e-06
6.06781e-07
-6.96e-06
1.48718e-07
-3.14077e-06
-9.23407e-07
3.67953e-07
2.20472e-06
-2.5925e-06
4.7744e-07
4.18355e-06
-4.42448e-06
4.84236e-07
4.68097e-06
-6.05848e-06
4.66656e-07
4.2924e-06
-7.17067e-06
4.60561e-07
3.16193e-06
-7.4073e-06
4.79698e-07
1.26022e-06
-6.44971e-06
5.09823e-07
-1.27265e-06
-4.2596e-06
5.0533e-07
-3.73961e-06
-1.53623e-06
3.77725e-07
-4.5973e-06
3.65563e-08
-2.23703e-06
-3.36738e-07
1.32544e-06
-1.0109e-06
2.2982e-06
-1.78094e-06
2.56726e-06
-2.51308e-06
2.48837e-06
-3.06766e-06
2.12024e-06
-3.25972e-06
1.40466e-06
-2.89861e-06
3.37663e-07
-1.92152e-06
-8.60821e-07
-6.57819e-07
-1.54106e-06
-9.06547e-07
-4.29835e-07
-4.9247e-07
2.24775e-06
-1.23451e-06
-6.28649e-07
3.73153e-06
-2.14253e-06
-6.01752e-07
4.07703e-06
-3.05351e-06
-5.12344e-07
3.9117e-06
-3.85652e-06
-4.14399e-07
3.33766e-06
-4.33876e-06
-3.47858e-07
2.23476e-06
-4.17807e-06
-3.30806e-07
5.07778e-07
-3.09208e-06
-3.60678e-07
-1.58614e-06
-1.27376e-06
-3.18288e-07
-3.04108e-06
-6.63775e-09
-2.17367e-06
-1.21098e-06
-8.0584e-07
3.72907e-06
-3.29019e-06
-1.11094e-06
6.74505e-06
-5.53999e-06
-1.06328e-06
7.39231e-06
-7.61379e-06
-8.79089e-07
6.73293e-06
-9.20879e-06
-6.59154e-07
5.00169e-06
-9.9109e-06
-4.70839e-07
2.08531e-06
-9.19318e-06
-3.63376e-07
-1.9578e-06
-6.64976e-06
-3.71399e-07
-6.2723e-06
-2.76614e-06
-3.66514e-07
-8.43269e-06
-6.93341e-08
-4.94048e-06
-1.77765e-06
-7.59247e-07
4.12345e-06
-4.76274e-06
-1.0903e-06
7.69164e-06
-7.89783e-06
-1.04196e-06
8.35624e-06
-1.06401e-05
-8.40133e-07
7.25608e-06
-1.25661e-05
-5.87374e-07
4.68662e-06
-1.31774e-05
-3.48695e-07
6.19213e-07
-1.19359e-05
-1.99492e-07
-4.71454e-06
-8.46544e-06
-1.94121e-07
-1.00067e-05
-3.46618e-06
-2.4267e-07
-1.20831e-05
-8.91198e-08
-6.58717e-06
-2.12041e-06
-4.44415e-07
4.17202e-06
-5.65835e-06
-6.51763e-07
7.88065e-06
-9.30523e-06
-6.21563e-07
8.47383e-06
-1.23852e-05
-4.92247e-07
7.0746e-06
-1.44068e-05
-3.27058e-07
4.01491e-06
-1.48689e-05
-1.67588e-07
-6.51567e-07
-1.3257e-05
-6.34009e-08
-6.5505e-06
-9.27607e-06
-5.97811e-08
-1.21788e-05
-3.74555e-06
-1.07819e-07
-1.40465e-05
-5.64565e-08
-7.42971e-06
-2.27547e-06
9.72902e-13
4.15164e-06
-6.06749e-06
2.94657e-13
7.87885e-06
-9.94167e-06
6.32288e-14
8.42016e-06
-1.31564e-05
8.59148e-14
6.87962e-06
-1.51923e-05
1.56431e-13
3.6098e-06
-1.55545e-05
1.70929e-13
-1.29536e-06
-1.3765e-05
5.77277e-14
-7.37673e-06
-9.57207e-06
8.62725e-14
-1.30922e-05
-3.84022e-06
9.77391e-14
-1.48424e-05
1.9645e-13
-7.76438e-06
-2.27547e-06
4.44417e-07
4.15164e-06
-6.06749e-06
6.51763e-07
7.87885e-06
-9.94167e-06
6.21563e-07
8.42016e-06
-1.31564e-05
4.92247e-07
6.87962e-06
-1.51923e-05
3.27059e-07
3.6098e-06
-1.55545e-05
1.67589e-07
-1.29536e-06
-1.3765e-05
6.34011e-08
-7.37673e-06
-9.57207e-06
5.97813e-08
-1.30922e-05
-3.84022e-06
1.07819e-07
-1.48424e-05
5.64569e-08
-7.76438e-06
-2.12041e-06
7.59248e-07
4.17202e-06
-5.65835e-06
1.0903e-06
7.88065e-06
-9.30523e-06
1.04196e-06
8.47383e-06
-1.23852e-05
8.40133e-07
7.0746e-06
-1.44068e-05
5.87374e-07
4.01491e-06
-1.48689e-05
3.48695e-07
-6.51568e-07
-1.3257e-05
1.99492e-07
-6.5505e-06
-9.27607e-06
1.94121e-07
-1.21788e-05
-3.74555e-06
2.4267e-07
-1.40465e-05
8.91201e-08
-7.42971e-06
-1.77765e-06
8.05842e-07
4.12345e-06
-4.76274e-06
1.11094e-06
7.69164e-06
-7.89783e-06
1.06328e-06
8.35624e-06
-1.06401e-05
8.79089e-07
7.25608e-06
-1.25661e-05
6.59154e-07
4.68662e-06
-1.31774e-05
4.70839e-07
6.19213e-07
-1.19359e-05
3.63377e-07
-4.71454e-06
-8.46544e-06
3.714e-07
-1.00067e-05
-3.46618e-06
3.66515e-07
-1.20831e-05
6.93342e-08
-6.58717e-06
-1.21098e-06
4.9247e-07
3.72907e-06
-3.29019e-06
6.28649e-07
6.74505e-06
-5.53999e-06
6.01752e-07
7.39231e-06
-7.61378e-06
5.12345e-07
6.73293e-06
-9.20879e-06
4.144e-07
5.00169e-06
-9.9109e-06
3.47858e-07
2.08531e-06
-9.19318e-06
3.30806e-07
-1.9578e-06
-6.64976e-06
3.60678e-07
-6.2723e-06
-2.76614e-06
3.18288e-07
-8.43269e-06
6.63773e-09
-4.94048e-06
-4.29835e-07
2.24775e-06
-1.23452e-06
3.73153e-06
-2.14253e-06
4.07702e-06
-3.05351e-06
3.91169e-06
-3.85652e-06
3.33766e-06
-4.33876e-06
2.23476e-06
-4.17807e-06
5.07777e-07
-3.09208e-06
-1.58614e-06
-1.27376e-06
-3.04109e-06
-2.17367e-06
-5.4123e-07
-6.04177e-07
3.39316e-06
-1.43192e-06
-7.39694e-07
5.36192e-06
-2.40651e-06
-6.29842e-07
5.68146e-06
-3.45484e-06
-3.95647e-07
5.35567e-06
-4.55278e-06
-1.09112e-07
4.5447e-06
-5.50451e-06
1.47204e-07
3.03928e-06
-5.8288e-06
2.62689e-07
5.69388e-07
-4.86833e-06
1.56694e-07
-2.70331e-06
-2.41028e-06
-4.75533e-08
-5.45158e-06
-2.48066e-09
-4.58147e-06
-1.49136e-06
-9.69657e-07
5.58591e-06
-3.87183e-06
-1.27698e-06
9.66281e-06
-6.38633e-06
-1.07202e-06
1.0349e-05
-8.7936e-06
-6.09923e-07
9.35448e-06
-1.09025e-05
-3.77326e-08
7.03923e-06
-1.23092e-05
4.86804e-07
3.15243e-06
-1.22679e-05
7.63523e-07
-2.50002e-06
-9.81685e-06
6.02112e-07
-9.16874e-06
-4.76331e-06
1.58629e-07
-1.36924e-05
-1.13383e-08
-9.69493e-06
-2.16835e-06
-8.99742e-07
6.22188e-06
-5.60683e-06
-1.23051e-06
1.10836e-05
-9.12338e-06
-1.01947e-06
1.18202e-05
-1.22532e-05
-5.31958e-07
1.03079e-05
-1.46869e-05
7.63855e-08
7.00618e-06
-1.59632e-05
6.3335e-07
1.74901e-06
-1.53745e-05
9.2684e-07
-5.46656e-06
-1.19988e-05
7.57619e-07
-1.35379e-05
-5.73958e-06
2.74869e-07
-1.84586e-05
-5.53312e-09
-1.23326e-05
-2.57054e-06
-5.21163e-07
6.36398e-06
-6.64086e-06
-7.26556e-07
1.1447e-05
-1.07097e-05
-5.95951e-07
1.21192e-05
-1.41565e-05
-2.91815e-07
1.02812e-05
-1.66162e-05
8.69707e-08
6.46402e-06
-1.76481e-05
4.28735e-07
5.84952e-07
-1.6669e-05
6.06001e-07
-7.2088e-06
-1.28438e-05
4.93875e-07
-1.57402e-05
-6.10588e-06
1.9169e-07
-2.07013e-05
7.47256e-10
-1.35419e-05
-2.74875e-06
7.44633e-13
6.37922e-06
-7.10209e-06
1.7141e-13
1.15056e-05
-1.14043e-05
-7.21042e-14
1.21265e-05
-1.49586e-05
-8.93756e-14
1.01421e-05
-1.73853e-05
-4.20663e-14
6.12348e-06
-1.82611e-05
-1.42656e-13
9.16399e-09
-1.71085e-05
-8.45165e-15
-7.92331e-06
-1.3125e-05
1.6985e-13
-1.65819e-05
-6.23311e-06
1.8531e-13
-2.15426e-05
1.99815e-13
-1.39967e-05
-2.74874e-06
5.21164e-07
6.37922e-06
-7.10209e-06
7.26556e-07
1.15056e-05
-1.14043e-05
5.95951e-07
1.21265e-05
-1.49586e-05
2.91815e-07
1.01421e-05
-1.73853e-05
-8.69708e-08
6.12348e-06
-1.82611e-05
-4.28735e-07
9.1642e-09
-1.71085e-05
-6.06001e-07
-7.92331e-06
-1.3125e-05
-4.93874e-07
-1.65819e-05
-6.23311e-06
-1.91689e-07
-2.15426e-05
-7.46928e-10
-1.39967e-05
-2.57054e-06
8.99743e-07
6.36398e-06
-6.64086e-06
1.23051e-06
1.1447e-05
-1.07097e-05
1.01947e-06
1.21192e-05
-1.41565e-05
5.31958e-07
1.02812e-05
-1.66162e-05
-7.63854e-08
6.46403e-06
-1.76481e-05
-6.3335e-07
5.84952e-07
-1.6669e-05
-9.2684e-07
-7.2088e-06
-1.28438e-05
-7.57619e-07
-1.57402e-05
-6.10588e-06
-2.74869e-07
-2.07013e-05
5.53337e-09
-1.35419e-05
-2.16835e-06
9.69658e-07
6.22188e-06
-5.60683e-06
1.27698e-06
1.10836e-05
-9.12338e-06
1.07202e-06
1.18202e-05
-1.22532e-05
6.09924e-07
1.03079e-05
-1.46869e-05
3.7733e-08
7.00618e-06
-1.59632e-05
-4.86804e-07
1.74901e-06
-1.53745e-05
-7.63523e-07
-5.46656e-06
-1.19988e-05
-6.02112e-07
-1.35379e-05
-5.73958e-06
-1.58629e-07
-1.84586e-05
1.13384e-08
-1.23326e-05
-1.49135e-06
6.04177e-07
5.5859e-06
-3.87183e-06
7.39694e-07
9.66281e-06
-6.38633e-06
6.29842e-07
1.0349e-05
-8.7936e-06
3.95648e-07
9.35448e-06
-1.09025e-05
1.09112e-07
7.03923e-06
-1.23092e-05
-1.47204e-07
3.15243e-06
-1.22679e-05
-2.62689e-07
-2.50002e-06
-9.81685e-06
-1.56694e-07
-9.16874e-06
-4.76331e-06
4.75535e-08
-1.36924e-05
2.48089e-09
-9.69493e-06
-5.41231e-07
3.39316e-06
-1.43192e-06
5.36192e-06
-2.40651e-06
5.68145e-06
-3.45484e-06
5.35567e-06
-4.55278e-06
4.5447e-06
-5.50451e-06
3.03928e-06
-5.82881e-06
5.69388e-07
-4.86833e-06
-2.70331e-06
-2.41028e-06
-5.45158e-06
-4.58147e-06
-7.5273e-07
-7.02627e-07
4.84852e-06
-1.65409e-06
-7.95865e-07
7.05914e-06
-2.5307e-06
-5.35316e-07
7.09339e-06
-3.55981e-06
-6.11432e-08
6.44592e-06
-4.88607e-06
5.23212e-07
5.34776e-06
-6.41279e-06
1.07804e-06
3.48796e-06
-7.54911e-06
1.37496e-06
3.30749e-07
-7.15602e-06
1.13816e-06
-4.23455e-06
-4.23512e-06
4.62579e-07
-8.83506e-06
-6.62529e-08
-8.75034e-06
-1.83842e-06
-1.0994e-06
7.82109e-06
-4.32786e-06
-1.34772e-06
1.27041e-05
-6.75506e-06
-8.84182e-07
1.3125e-05
-9.11754e-06
-8.50317e-09
1.16643e-05
-1.14629e-05
1.06117e-06
8.84661e-06
-1.35414e-05
2.04414e-06
4.26482e-06
-1.45359e-05
2.52633e-06
-2.65687e-06
-1.2926e-05
2.09265e-06
-1.17331e-05
-7.35903e-06
9.05437e-07
-1.97022e-05
-6.18326e-08
-1.70584e-05
-2.55479e-06
-1.00155e-06
8.67882e-06
-6.14316e-06
-1.27715e-06
1.46015e-05
-9.54994e-06
-8.16457e-07
1.51593e-05
-1.25298e-05
6.78795e-08
1.32114e-05
-1.50214e-05
1.12922e-06
9.42972e-06
-1.67801e-05
2.06805e-06
3.48377e-06
-1.71505e-05
2.46271e-06
-5.03248e-06
-1.47737e-05
1.9764e-06
-1.57984e-05
-8.31517e-06
8.42822e-07
-2.48545e-05
-3.0557e-08
-2.0679e-05
-2.9596e-06
-5.73174e-07
8.89521e-06
-7.17604e-06
-7.45345e-07
1.51317e-05
-1.10821e-05
-4.66964e-07
1.56758e-05
-1.42597e-05
6.89943e-08
1.34577e-05
-1.66126e-05
7.05299e-07
9.24088e-06
-1.79862e-05
1.25274e-06
2.77382e-06
-1.7936e-05
1.44663e-06
-6.24288e-06
-1.52758e-05
1.12767e-06
-1.75517e-05
-8.62161e-06
4.70201e-07
-2.69829e-05
-8.10545e-09
-2.21859e-05
-3.13116e-06
5.38945e-13
8.9372e-06
-7.6166e-06
9.35727e-14
1.52457e-05
-1.17163e-05
-1.63904e-13
1.57592e-05
-1.49311e-05
-2.09595e-13
1.34259e-05
-1.71605e-05
-2.28971e-13
9.05813e-06
-1.83386e-05
-7.71602e-14
2.44002e-06
-1.81214e-05
2.20843e-13
-6.69387e-06
-1.5407e-05
2.01691e-13
-1.81686e-05
-8.73567e-06
1.97103e-13
-2.77437e-05
1.52663e-13
-2.27405e-05
-3.13116e-06
5.73175e-07
8.9372e-06
-7.6166e-06
7.45345e-07
1.52457e-05
-1.17163e-05
4.66964e-07
1.57592e-05
-1.49311e-05
-6.89947e-08
1.34259e-05
-1.71605e-05
-7.05299e-07
9.05813e-06
-1.83386e-05
-1.25274e-06
2.44002e-06
-1.81214e-05
-1.44663e-06
-6.69387e-06
-1.5407e-05
-1.12767e-06
-1.81686e-05
-8.73567e-06
-4.702e-07
-2.77437e-05
8.10571e-09
-2.27405e-05
-2.9596e-06
1.00155e-06
8.89521e-06
-7.17604e-06
1.27715e-06
1.51317e-05
-1.10821e-05
8.16457e-07
1.56758e-05
-1.42597e-05
-6.78796e-08
1.34577e-05
-1.66126e-05
-1.12922e-06
9.24088e-06
-1.79862e-05
-2.06805e-06
2.77382e-06
-1.7936e-05
-2.46271e-06
-6.24288e-06
-1.52758e-05
-1.9764e-06
-1.75517e-05
-8.62161e-06
-8.42821e-07
-2.69829e-05
3.05572e-08
-2.21859e-05
-2.55479e-06
1.0994e-06
8.67882e-06
-6.14316e-06
1.34772e-06
1.46015e-05
-9.54994e-06
8.84182e-07
1.51593e-05
-1.25298e-05
8.50326e-09
1.32114e-05
-1.50214e-05
-1.06117e-06
9.42972e-06
-1.67801e-05
-2.04414e-06
3.48377e-06
-1.71505e-05
-2.52633e-06
-5.03248e-06
-1.47737e-05
-2.09265e-06
-1.57984e-05
-8.31517e-06
-9.05437e-07
-2.48545e-05
6.18327e-08
-2.0679e-05
-1.83842e-06
7.02627e-07
7.82109e-06
-4.32786e-06
7.95865e-07
1.27041e-05
-6.75506e-06
5.35316e-07
1.3125e-05
-9.11754e-06
6.11432e-08
1.16643e-05
-1.14629e-05
-5.23212e-07
8.84661e-06
-1.35414e-05
-1.07804e-06
4.26482e-06
-1.45359e-05
-1.37496e-06
-2.65687e-06
-1.2926e-05
-1.13816e-06
-1.17331e-05
-7.35903e-06
-4.62579e-07
-1.97022e-05
6.6253e-08
-1.70584e-05
-7.5273e-07
4.84852e-06
-1.65409e-06
7.05914e-06
-2.5307e-06
7.09338e-06
-3.55981e-06
6.44592e-06
-4.88607e-06
5.34776e-06
-6.41279e-06
3.48795e-06
-7.54911e-06
3.30749e-07
-7.15602e-06
-4.23455e-06
-4.23512e-06
-8.83506e-06
-8.75034e-06
-1.29902e-06
-8.27405e-07
6.97494e-06
-2.01473e-06
-8.40323e-07
8.61518e-06
-2.43021e-06
-3.69207e-07
7.87807e-06
-3.05329e-06
4.04489e-07
6.6645e-06
-4.28474e-06
1.34577e-06
5.23344e-06
-6.24062e-06
2.28782e-06
3.15602e-06
-8.40489e-06
2.87051e-06
-3.7549e-07
-9.18027e-06
2.54159e-06
-6.00076e-06
-6.46968e-06
1.20717e-06
-1.27528e-05
-2.7379e-07
-1.49462e-05
-2.52306e-06
-1.2332e-06
1.075e-05
-4.72411e-06
-1.38219e-06
1.5447e-05
-6.3495e-06
-6.01201e-07
1.49824e-05
-7.82635e-06
7.18833e-07
1.28268e-05
-9.58162e-06
2.29131e-06
9.65633e-06
-1.17142e-05
3.73574e-06
4.94949e-06
-1.36635e-05
4.44571e-06
-2.28282e-06
-1.3715e-05
3.71322e-06
-1.28532e-05
-9.28922e-06
1.60738e-06
-2.45282e-05
-3.81165e-07
-2.62402e-05
-3.17244e-06
-1.08978e-06
1.17078e-05
-6.37022e-06
-1.27966e-06
1.76967e-05
-8.77048e-06
-5.40181e-07
1.74985e-05
-1.0554e-05
7.2228e-07
1.49915e-05
-1.20606e-05
2.18715e-06
1.10405e-05
-1.34808e-05
3.43986e-06
5.19981e-06
-1.45727e-05
3.90727e-06
-3.40216e-06
-1.40678e-05
3.0744e-06
-1.56645e-05
-9.52136e-06
1.20939e-06
-2.9003e-05
-3.02039e-07
-3.02795e-05
-3.5045e-06
-6.12479e-07
1.19224e-05
-7.22979e-06
-7.36113e-07
1.83134e-05
-9.98467e-06
-3.02254e-07
1.81927e-05
-1.17823e-05
4.40536e-07
1.5537e-05
-1.29444e-05
1.2845e-06
1.13057e-05
-1.38067e-05
1.97086e-06
5.10507e-06
-1.44244e-05
2.16839e-06
-3.88623e-06
-1.38265e-05
1.63559e-06
-1.67108e-05
-9.51336e-06
6.03575e-07
-3.06902e-05
-1.50082e-07
-3.18513e-05
-3.63351e-06
3.25111e-13
1.19582e-05
-7.56868e-06
-1.76581e-14
1.84448e-05
-1.04429e-05
-2.93395e-13
1.83312e-05
-1.21957e-05
-3.01046e-13
1.56192e-05
-1.31616e-05
-1.66493e-13
1.13085e-05
-1.37767e-05
1.09037e-13
5.02604e-06
-1.42484e-05
2.29928e-13
-4.05383e-06
-1.37069e-05
2.53929e-13
-1.70745e-05
-9.54286e-06
2.08721e-13
-3.13042e-05
1.38243e-13
-3.24335e-05
-3.63351e-06
6.1248e-07
1.19582e-05
-7.56868e-06
7.36113e-07
1.84448e-05
-1.04429e-05
3.02253e-07
1.83312e-05
-1.21957e-05
-4.40536e-07
1.56192e-05
-1.31616e-05
-1.2845e-06
1.13085e-05
-1.37767e-05
-1.97086e-06
5.02604e-06
-1.42484e-05
-2.16839e-06
-4.05383e-06
-1.37069e-05
-1.63559e-06
-1.70745e-05
-9.54286e-06
-6.03575e-07
-3.13042e-05
1.50082e-07
-3.24335e-05
-3.5045e-06
1.08978e-06
1.19224e-05
-7.22979e-06
1.27966e-06
1.83134e-05
-9.98467e-06
5.40181e-07
1.81927e-05
-1.17823e-05
-7.2228e-07
1.5537e-05
-1.29444e-05
-2.18715e-06
1.13057e-05
-1.38067e-05
-3.43986e-06
5.10507e-06
-1.44244e-05
-3.90727e-06
-3.88623e-06
-1.38265e-05
-3.0744e-06
-1.67108e-05
-9.51336e-06
-1.20939e-06
-3.06902e-05
3.02039e-07
-3.18513e-05
-3.17244e-06
1.2332e-06
1.17078e-05
-6.37022e-06
1.38219e-06
1.76967e-05
-8.77048e-06
6.01201e-07
1.74985e-05
-1.0554e-05
-7.18833e-07
1.49915e-05
-1.20606e-05
-2.29131e-06
1.10405e-05
-1.34808e-05
-3.73574e-06
5.19981e-06
-1.45727e-05
-4.44571e-06
-3.40216e-06
-1.40678e-05
-3.71322e-06
-1.56645e-05
-9.52136e-06
-1.60738e-06
-2.9003e-05
3.81165e-07
-3.02795e-05
-2.52306e-06
8.27405e-07
1.075e-05
-4.72411e-06
8.40323e-07
1.5447e-05
-6.3495e-06
3.69207e-07
1.49824e-05
-7.82636e-06
-4.04489e-07
1.28268e-05
-9.58162e-06
-1.34577e-06
9.65633e-06
-1.17142e-05
-2.28782e-06
4.94949e-06
-1.36635e-05
-2.87051e-06
-2.28282e-06
-1.3715e-05
-2.54159e-06
-1.28532e-05
-9.28922e-06
-1.20717e-06
-2.45282e-05
2.7379e-07
-2.62402e-05
-1.29902e-06
6.97494e-06
-2.01473e-06
8.61518e-06
-2.43021e-06
7.87807e-06
-3.05329e-06
6.6645e-06
-4.28474e-06
5.23344e-06
-6.24062e-06
3.15602e-06
-8.40489e-06
-3.7549e-07
-9.18027e-06
-6.00076e-06
-6.46968e-06
-1.27528e-05
-1.49462e-05
-2.53878e-06
-1.09486e-06
1.06086e-05
-2.40767e-06
-1.07858e-06
9.56265e-06
-1.5321e-06
-4.24172e-07
7.42667e-06
-9.74657e-07
5.9279e-07
5.51427e-06
-1.40301e-06
1.80377e-06
3.85802e-06
-3.18169e-06
3.05705e-06
1.87765e-06
-6.18417e-06
3.98704e-06
-1.36004e-06
-8.67918e-06
3.70083e-06
-7.20658e-06
-7.65984e-06
1.68142e-06
-1.54536e-05
-9.61387e-07
-2.16447e-05
-4.18818e-06
-1.51612e-06
1.53594e-05
-5.05812e-06
-1.65207e-06
1.68904e-05
-4.39236e-06
-6.68387e-07
1.45609e-05
-3.45501e-06
8.93901e-07
1.15884e-05
-3.13017e-06
2.72332e-06
8.41194e-06
-3.95394e-06
4.44493e-06
4.38539e-06
-6.01733e-06
5.45418e-06
-1.68657e-06
-8.2282e-06
4.65845e-06
-1.15999e-05
-7.51719e-06
1.73244e-06
-2.52903e-05
-1.29991e-06
-3.34189e-05
-4.83345e-06
-1.26922e-06
1.62944e-05
-6.44387e-06
-1.45595e-06
1.9111e-05
-6.14398e-06
-5.78486e-07
1.71088e-05
-5.02802e-06
8.24847e-07
1.39446e-05
-3.93724e-06
2.41413e-06
1.02589e-05
-3.54812e-06
3.80408e-06
5.45154e-06
-4.33516e-06
4.44096e-06
-1.6019e-06
-6.08852e-06
3.53562e-06
-1.27883e-05
-6.14676e-06
1.13113e-06
-2.83435e-05
-9.47091e-07
-3.67791e-05
-5.08602e-06
-6.90503e-07
1.64297e-05
-7.05539e-06
-8.13179e-07
1.964e-05
-6.91852e-06
-3.15571e-07
1.77929e-05
-5.65464e-06
4.80257e-07
1.46177e-05
-4.10153e-06
1.36196e-06
1.08047e-05
-3.06304e-06
2.09465e-06
5.77601e-06
-3.29779e-06
2.36785e-06
-1.57836e-06
-5.05391e-06
1.80217e-06
-1.32213e-05
-5.67685e-06
5.31036e-07
-2.94672e-05
-4.46777e-07
-3.80284e-05
-5.16315e-06
1.51712e-13
1.64309e-05
-7.25611e-06
-1.0584e-13
1.97246e-05
-7.15893e-06
-2.6013e-13
1.79184e-05
-5.80814e-06
-2.44099e-13
1.47487e-05
-4.05489e-06
-1.26131e-13
1.09173e-05
-2.78175e-06
6.44325e-14
5.84755e-06
-2.87971e-06
1.84885e-13
-1.58802e-06
-4.74809e-06
2.44695e-13
-1.34039e-05
-5.61808e-06
1.89222e-13
-2.99032e-05
1.16297e-13
-3.84983e-05
-5.16315e-06
6.90503e-07
1.64309e-05
-7.25611e-06
8.13179e-07
1.97246e-05
-7.15893e-06
3.1557e-07
1.79184e-05
-5.80814e-06
-4.80258e-07
1.47487e-05
-4.05489e-06
-1.36196e-06
1.09173e-05
-2.78175e-06
-2.09465e-06
5.84755e-06
-2.87971e-06
-2.36785e-06
-1.58802e-06
-4.74809e-06
-1.80217e-06
-1.34039e-05
-5.61808e-06
-5.31036e-07
-2.99032e-05
4.46777e-07
-3.84983e-05
-5.08602e-06
1.26922e-06
1.64297e-05
-7.05539e-06
1.45595e-06
1.964e-05
-6.91852e-06
5.78485e-07
1.77929e-05
-5.65464e-06
-8.24847e-07
1.46177e-05
-4.10153e-06
-2.41413e-06
1.08047e-05
-3.06304e-06
-3.80408e-06
5.77601e-06
-3.29779e-06
-4.44096e-06
-1.57836e-06
-5.05391e-06
-3.53562e-06
-1.32213e-05
-5.67685e-06
-1.13112e-06
-2.94672e-05
9.47091e-07
-3.80284e-05
-4.83345e-06
1.51612e-06
1.62944e-05
-6.44387e-06
1.65207e-06
1.9111e-05
-6.14398e-06
6.68387e-07
1.71088e-05
-5.02802e-06
-8.93901e-07
1.39446e-05
-3.93724e-06
-2.72332e-06
1.02589e-05
-3.54812e-06
-4.44493e-06
5.45154e-06
-4.33516e-06
-5.45418e-06
-1.6019e-06
-6.08852e-06
-4.65845e-06
-1.27883e-05
-6.14676e-06
-1.73244e-06
-2.83435e-05
1.29991e-06
-3.67791e-05
-4.18818e-06
1.09486e-06
1.53594e-05
-5.05812e-06
1.07858e-06
1.68904e-05
-4.39236e-06
4.24172e-07
1.45609e-05
-3.45501e-06
-5.9279e-07
1.15884e-05
-3.13017e-06
-1.80377e-06
8.41194e-06
-3.95394e-06
-3.05705e-06
4.38539e-06
-6.01733e-06
-3.98704e-06
-1.68657e-06
-8.2282e-06
-3.70083e-06
-1.15999e-05
-7.51719e-06
-1.68142e-06
-2.52903e-05
9.61387e-07
-3.34189e-05
-2.53878e-06
1.06086e-05
-2.40767e-06
9.56265e-06
-1.5321e-06
7.42667e-06
-9.74657e-07
5.51427e-06
-1.40301e-06
3.85802e-06
-3.18169e-06
1.87765e-06
-6.18417e-06
-1.36004e-06
-8.67918e-06
-7.20658e-06
-7.65984e-06
-1.54536e-05
-2.16447e-05
-2.70618e-06
-1.84737e-06
1.51621e-05
3.84759e-07
-1.93577e-06
8.40748e-06
4.35381e-06
-1.17066e-06
4.62828e-06
7.19775e-06
-1.45384e-07
2.81571e-06
8.4206e-06
1.07345e-06
1.56171e-06
7.5583e-06
2.36537e-06
3.74578e-07
4.29824e-06
3.56552e-06
-1.66552e-06
-6.36825e-07
3.50516e-06
-5.77667e-06
-3.48096e-06
9.93324e-07
-1.36028e-05
-2.65943e-06
-2.24662e-05
-4.85949e-06
-2.2005e-06
2.0572e-05
-9.9821e-07
-2.61555e-06
1.37089e-05
4.78276e-06
-1.74651e-06
9.35576e-06
9.87437e-06
-3.31539e-07
6.68292e-06
1.35694e-05
1.3147e-06
4.47571e-06
1.51539e-05
2.97965e-06
2.18656e-06
1.37738e-05
4.30683e-06
-1.04775e-06
9.12559e-06
3.93458e-06
-7.38115e-06
3.01027e-06
8.1267e-07
-1.89943e-05
-2.67889e-06
-3.03892e-05
-5.63752e-06
-1.66886e-06
2.14003e-05
-2.00051e-06
-2.12191e-06
1.49804e-05
3.92013e-06
-1.44936e-06
1.0891e-05
9.67395e-06
-3.04392e-07
8.16359e-06
1.44927e-05
1.03036e-06
5.72452e-06
1.75497e-05
2.31982e-06
3.05434e-06
1.75599e-05
3.23517e-06
-5.40414e-07
1.34459e-05
2.84348e-06
-7.58312e-06
5.59219e-06
5.42486e-07
-2.02196e-05
-1.66266e-06
-3.22031e-05
-5.82571e-06
-8.60591e-07
2.14471e-05
-2.33616e-06
-1.1295e-06
1.5158e-05
3.57061e-06
-7.71911e-07
1.12087e-05
9.5174e-06
-1.61982e-07
8.52851e-06
1.47375e-05
5.47463e-07
6.06757e-06
1.83176e-05
1.21432e-06
3.30143e-06
1.87344e-05
1.65139e-06
-4.11389e-07