/*--------------------------------*- C++ -*----------------------------------*\
  =========                 |
  \\      /  F ield         | OpenFOAM: The Open Source CFD Toolbox
   \\    /   O peration     | Website:  https://openfoam.org
    \\  /    A nd           | Version:  9
     \\/     M anipulation  |
\*---------------------------------------------------------------------------*/
FoamFile
{
    format      ascii;
    class       volVectorField;
    location    "0.42";
    object      U;
}
// * * * * * * * * * * * * * * * * * * * * * * * * * * * * * * * * * * * * * //

dimensions      [0 1 -1 0 0 0 0];

internalField   nonuniform List<vector> 
1000
(
(-5.83151e-05 -0.000416627 0.000359197)
(-0.00161338 -0.00034089 0.00104725)
(-0.00478313 -0.000290378 0.00132937)
(-0.00802716 -0.000385608 0.00140048)
(-0.0107122 -0.000651887 0.00130221)
(-0.012018 -0.00105637 0.000968581)
(-0.0111215 -0.00146942 0.000388014)
(-0.00775063 -0.00164262 -0.000241948)
(-0.00270864 -0.00132751 -0.000417371)
(2.73832e-05 -0.000389328 0.000213701)
(-0.00027989 -0.00140162 0.000601352)
(-0.00360982 -0.0016075 0.00214758)
(-0.0100241 -0.0016303 0.00275064)
(-0.0164311 -0.00190899 0.00273505)
(-0.0215245 -0.00255662 0.00221445)
(-0.0237926 -0.00349369 0.00111509)
(-0.0217822 -0.00439434 -0.000468592)
(-0.0151006 -0.00466081 -0.00189935)
(-0.00547081 -0.00375154 -0.00194456)
(-0.000139875 -0.00136941 2.08888e-05)
(-0.000436622 -0.00201427 0.00036123)
(-0.00487042 -0.00271264 0.00222702)
(-0.0132278 -0.00290984 0.00295155)
(-0.021465 -0.00326883 0.00282242)
(-0.0278766 -0.00397985 0.00196196)
(-0.03054 -0.00495883 0.000304634)
(-0.0276259 -0.00579934 -0.0019572)
(-0.0187426 -0.00589958 -0.00377318)
(-0.00633345 -0.00474132 -0.00341341)
(0.000130548 -0.00201151 -0.000235986)
(-0.000516172 -0.00166017 5.08569e-05)
(-0.00559082 -0.00236086 0.00197576)
(-0.0150958 -0.00257216 0.00273071)
(-0.024406 -0.00285188 0.00252476)
(-0.0315699 -0.00336505 0.00145811)
(-0.0343637 -0.00404943 -0.000535697)
(-0.0307499 -0.00458163 -0.00318385)
(-0.0204422 -0.00456715 -0.00515255)
(-0.00638376 -0.00367348 -0.00440972)
(0.000500259 -0.00166256 -0.000395659)
(-0.000548867 -0.00063197 -0.000135087)
(-0.00591521 -0.000917696 0.00178295)
(-0.0159502 -0.00100529 0.00254298)
(-0.0257554 -0.00110784 0.00230275)
(-0.0332568 -0.00128865 0.00114303)
(-0.0360859 -0.00152457 -0.00100721)
(-0.0321039 -0.00170426 -0.00381672)
(-0.0210937 -0.00168509 -0.00582915)
(-0.00627382 -0.00135752 -0.00487552)
(0.00073025 -0.000632175 -0.000463161)
(-0.000548866 0.00063199 -0.000135086)
(-0.00591521 0.000917707 0.00178295)
(-0.0159502 0.0010053 0.00254298)
(-0.0257554 0.00110784 0.00230275)
(-0.0332568 0.00128866 0.00114303)
(-0.0360859 0.00152457 -0.00100721)
(-0.0321039 0.00170426 -0.00381672)
(-0.0210937 0.0016851 -0.00582915)
(-0.00627382 0.00135752 -0.00487552)
(0.00073025 0.000632177 -0.000463162)
(-0.000516168 0.00166018 5.08615e-05)
(-0.00559082 0.00236087 0.00197577)
(-0.0150958 0.00257217 0.00273071)
(-0.024406 0.00285188 0.00252476)
(-0.0315699 0.00336506 0.00145811)
(-0.0343637 0.00404944 -0.000535698)
(-0.0307499 0.00458163 -0.00318385)
(-0.0204422 0.00456715 -0.00515255)
(-0.00638376 0.00367348 -0.00440972)
(0.000500259 0.00166256 -0.000395659)
(-0.000436613 0.00201428 0.000361242)
(-0.00487041 0.00271265 0.00222703)
(-0.0132278 0.00290984 0.00295156)
(-0.021465 0.00326883 0.00282243)
(-0.0278766 0.00397986 0.00196196)
(-0.03054 0.00495883 0.000304633)
(-0.0276259 0.00579934 -0.0019572)
(-0.0187426 0.00589958 -0.00377318)
(-0.00633345 0.00474132 -0.00341341)
(0.000130548 0.00201151 -0.000235987)
(-0.000279862 0.00140158 0.000601382)
(-0.0036098 0.00160747 0.0021476)
(-0.0100242 0.0016303 0.00275065)
(-0.0164311 0.00190899 0.00273505)
(-0.0215245 0.00255662 0.00221445)
(-0.0237926 0.00349369 0.00111509)
(-0.0217822 0.00439434 -0.000468594)
(-0.0151006 0.00466081 -0.00189935)
(-0.00547081 0.00375154 -0.00194456)
(-0.000139874 0.00136941 2.08878e-05)
(-5.82586e-05 0.00041657 0.000359256)
(-0.00161334 0.000340862 0.00104728)
(-0.00478314 0.000290372 0.00132938)
(-0.00802718 0.000385607 0.00140048)
(-0.0107122 0.000651888 0.00130221)
(-0.012018 0.00105638 0.00096858)
(-0.0111215 0.00146942 0.000388014)
(-0.00775063 0.00164262 -0.000241949)
(-0.00270864 0.00132752 -0.000417371)
(2.73843e-05 0.000389329 0.000213701)
(-0.000682021 -0.00119285 0.00321617)
(-0.00423261 -0.00144705 0.00634787)
(-0.0101979 -0.00145816 0.00740641)
(-0.0161299 -0.00151176 0.00735596)
(-0.0209636 -0.00170255 0.00637579)
(-0.023357 -0.00203527 0.00428649)
(-0.0219394 -0.00238328 0.00116568)
(-0.0160507 -0.0024275 -0.00205292)
(-0.00674796 -0.00178703 -0.00333262)
(-0.000744587 -0.000222508 -0.000951862)
(-0.00196456 -0.00336747 0.00530656)
(-0.0105014 -0.00452178 0.0119068)
(-0.0240308 -0.0047207 0.0140146)
(-0.0370485 -0.00491527 0.0132074)
(-0.0470704 -0.00541931 0.00995231)
(-0.0514252 -0.00621566 0.00415863)
(-0.0476203 -0.0069695 -0.00347514)
(-0.0347052 -0.00688267 -0.010242)
(-0.0152561 -0.00516635 -0.011254)
(-0.00220289 -0.00131575 -0.00336174)
(-0.0028231 -0.0042736 0.00520585)
(-0.0146633 -0.00623237 0.0130503)
(-0.0330499 -0.0066672 0.0154317)
(-0.0503509 -0.00694102 0.0138352)
(-0.0632111 -0.00751144 0.00877103)
(-0.068254 -0.00834044 0.000280598)
(-0.0624321 -0.00898714 -0.0102762)
(-0.0448347 -0.00865462 -0.0187387)
(-0.0192769 -0.00662396 -0.0182725)
(-0.00258936 -0.00235326 -0.00538631)
(-0.00329067 -0.00333701 0.00456348)
(-0.0170705 -0.00506369 0.0126504)
(-0.0383415 -0.00547277 0.0150045)
(-0.0581026 -0.00568724 0.0128459)
(-0.0724821 -0.00608955 0.0066316)
(-0.077663 -0.00664813 -0.00348736)
(-0.0703407 -0.00698684 -0.0157011)
(-0.0498376 -0.0066346 -0.0248386)
(-0.0208111 -0.00513544 -0.0229493)
(-0.00247338 -0.00205096 -0.00664879)
(-0.00348538 -0.00124155 0.0041175)
(-0.0181416 -0.00191524 0.0121849)
(-0.04074 -0.00207822 0.014482)
(-0.0616146 -0.0021557 0.012051)
(-0.0766493 -0.00229345 0.00530093)
(-0.0818123 -0.00248027 -0.00555749)
(-0.0737091 -0.00257757 -0.0184691)
(-0.0518298 -0.00243269 -0.0278055)
(-0.0212657 -0.00189503 -0.0251361)
(-0.0023226 -0.000794986 -0.00721344)
(-0.00348538 0.00124157 0.0041175)
(-0.0181416 0.00191524 0.0121849)
(-0.04074 0.00207821 0.014482)
(-0.0616146 0.0021557 0.012051)
(-0.0766493 0.00229346 0.00530093)
(-0.0818123 0.00248027 -0.00555749)
(-0.0737091 0.00257757 -0.0184691)
(-0.0518298 0.00243269 -0.0278055)
(-0.0212657 0.00189503 -0.0251361)
(-0.0023226 0.000794988 -0.00721344)
(-0.00329066 0.00333702 0.00456348)
(-0.0170705 0.00506369 0.0126504)
(-0.0383414 0.00547276 0.0150045)
(-0.0581026 0.00568723 0.0128459)
(-0.0724821 0.00608955 0.0066316)
(-0.077663 0.00664813 -0.00348736)
(-0.0703407 0.00698684 -0.0157011)
(-0.0498376 0.0066346 -0.0248386)
(-0.0208111 0.00513544 -0.0229493)
(-0.00247338 0.00205096 -0.00664879)
(-0.00282308 0.0042736 0.00520587)
(-0.0146633 0.00623236 0.0130503)
(-0.0330499 0.00666719 0.0154317)
(-0.0503509 0.00694101 0.0138352)
(-0.0632111 0.00751144 0.00877103)
(-0.068254 0.00834044 0.000280597)
(-0.0624321 0.00898714 -0.0102762)
(-0.0448347 0.00865462 -0.0187387)
(-0.0192769 0.00662396 -0.0182725)
(-0.00258937 0.00235326 -0.00538631)
(-0.00196454 0.00336745 0.00530659)
(-0.0105014 0.00452176 0.0119068)
(-0.0240308 0.00472069 0.0140146)
(-0.0370485 0.00491527 0.0132074)
(-0.0470704 0.00541931 0.00995231)
(-0.0514252 0.00621566 0.00415863)
(-0.0476203 0.0069695 -0.00347514)
(-0.0347052 0.00688268 -0.010242)
(-0.0152561 0.00516635 -0.011254)
(-0.00220289 0.00131575 -0.00336174)
(-0.000681994 0.00119282 0.00321622)
(-0.00423258 0.00144703 0.0063479)
(-0.0101979 0.00145815 0.00740642)
(-0.0161299 0.00151176 0.00735596)
(-0.0209636 0.00170255 0.00637579)
(-0.023357 0.00203527 0.00428649)
(-0.0219394 0.00238328 0.00116568)
(-0.0160507 0.00242751 -0.00205292)
(-0.00674796 0.00178703 -0.00333262)
(-0.000744587 0.000222509 -0.000951861)
(-0.00114321 -0.0018915 0.00920701)
(-0.00610185 -0.00240126 0.016328)
(-0.0139378 -0.00240635 0.0183928)
(-0.0217106 -0.00232858 0.0178565)
(-0.0283826 -0.0023394 0.015155)
(-0.0324205 -0.00251704 0.00992867)
(-0.0318523 -0.00277595 0.00228313)
(-0.0250147 -0.00281025 -0.00587112)
(-0.012163 -0.0020618 -0.00999941)
(-0.00215873 -1.70365e-05 -0.00515419)
(-0.0033623 -0.00511867 0.0152214)
(-0.0160072 -0.00698061 0.0297814)
(-0.0348588 -0.00711519 0.0336723)
(-0.052797 -0.00687992 0.0309627)
(-0.0670591 -0.00680381 0.0227361)
(-0.074435 -0.00704465 0.00888637)
(-0.0713668 -0.00736778 -0.00917584)
(-0.0552473 -0.00715924 -0.0259347)
(-0.0274143 -0.00536102 -0.0304791)
(-0.00530948 -0.000861516 -0.0132901)
(-0.0049097 -0.00623997 0.0162154)
(-0.0228834 -0.00909265 0.0334079)
(-0.0491136 -0.00939012 0.0375556)
(-0.0733604 -0.00902781 0.0327428)
(-0.0917438 -0.00872746 0.0202221)
(-0.100144 -0.00864127 0.000273938)
(-0.0944183 -0.00855041 -0.0242595)
(-0.0718979 -0.00801003 -0.0450961)
(-0.0350665 -0.00617993 -0.0471631)
(-0.00652254 -0.00185687 -0.0191926)
(-0.00578817 -0.0047521 0.0157256)
(-0.0269435 -0.00717089 0.0334867)
(-0.0575799 -0.00744633 0.0373693)
(-0.0853962 -0.00711594 0.0310716)
(-0.10584 -0.00675955 0.0158443)
(-0.11433 -0.00648125 -0.00767603)
(-0.106532 -0.00617057 -0.0356938)
(-0.0800642 -0.00565735 -0.0581257)
(-0.0383122 -0.00446185 -0.0576989)
(-0.00676643 -0.00163997 -0.0226913)
(-0.00616362 -0.00174594 0.0152285)
(-0.0287596 -0.00267399 0.0329941)
(-0.0614123 -0.00278208 0.036657)
(-0.0908115 -0.00264824 0.0296397)
(-0.112086 -0.00249084 0.0131692)
(-0.120454 -0.00234843 -0.0119156)
(-0.111563 -0.00219007 -0.0413393)
(-0.0832727 -0.00198808 -0.0642368)
(-0.0394296 -0.0015891 -0.0624579)
(-0.0067537 -0.000636155 -0.0242169)
(-0.00616362 0.00174595 0.0152285)
(-0.0287596 0.00267399 0.0329941)
(-0.0614123 0.00278208 0.036657)
(-0.0908115 0.00264823 0.0296397)
(-0.112086 0.00249084 0.0131692)
(-0.120454 0.00234843 -0.0119156)
(-0.111563 0.00219007 -0.0413393)
(-0.0832727 0.00198808 -0.0642368)
(-0.0394296 0.0015891 -0.0624579)
(-0.0067537 0.000636156 -0.0242169)
(-0.00578816 0.00475211 0.0157256)
(-0.0269435 0.00717088 0.0334867)
(-0.0575798 0.00744632 0.0373693)
(-0.0853962 0.00711594 0.0310716)
(-0.10584 0.00675955 0.0158443)
(-0.11433 0.00648125 -0.00767603)
(-0.106532 0.00617057 -0.0356938)
(-0.0800642 0.00565735 -0.0581257)
(-0.0383122 0.00446186 -0.0576989)
(-0.00676644 0.00163997 -0.0226913)
(-0.00490969 0.00623998 0.0162154)
(-0.0228834 0.00909264 0.033408)
(-0.0491136 0.00939011 0.0375557)
(-0.0733604 0.00902781 0.0327428)
(-0.0917438 0.00872746 0.0202221)
(-0.100144 0.00864127 0.000273939)
(-0.0944183 0.00855041 -0.0242595)
(-0.0718979 0.00801004 -0.0450961)
(-0.0350665 0.00617994 -0.0471631)
(-0.00652254 0.00185687 -0.0191926)
(-0.00336229 0.00511866 0.0152214)
(-0.0160072 0.00698059 0.0297814)
(-0.0348588 0.00711518 0.0336723)
(-0.052797 0.00687991 0.0309627)
(-0.0670591 0.00680381 0.0227361)
(-0.074435 0.00704465 0.00888638)
(-0.0713668 0.00736778 -0.00917584)
(-0.0552473 0.00715924 -0.0259347)
(-0.0274143 0.00536102 -0.0304791)
(-0.00530948 0.000861517 -0.0132901)
(-0.00114321 0.0018915 0.00920701)
(-0.00610185 0.00240124 0.016328)
(-0.0139378 0.00240634 0.0183929)
(-0.0217106 0.00232858 0.0178565)
(-0.0283826 0.0023394 0.015155)
(-0.0324205 0.00251704 0.00992867)
(-0.0318523 0.00277595 0.00228313)
(-0.0250147 0.00281025 -0.00587112)
(-0.012163 0.0020618 -0.00999941)
(-0.00215873 1.70366e-05 -0.00515419)
(-0.00156489 -0.00257313 0.0172552)
(-0.00766178 -0.00325181 0.029187)
(-0.0169114 -0.00311431 0.0321916)
(-0.0262361 -0.00271767 0.0309737)
(-0.0350338 -0.00232181 0.0263414)
(-0.0418655 -0.00212709 0.0174941)
(-0.0440236 -0.00221651 0.00403578)
(-0.037978 -0.00246193 -0.0115126)
(-0.0217426 -0.00204722 -0.0212391)
(-0.00529476 9.28834e-05 -0.0137844)
(-0.00461976 -0.00681895 0.0285619)
(-0.020755 -0.00913907 0.0527708)
(-0.0439908 -0.00878968 0.0583401)
(-0.0662235 -0.00750452 0.0531934)
(-0.0851489 -0.00605234 0.0392284)
(-0.0975073 -0.00492938 0.0158386)
(-0.0984643 -0.00441436 -0.0157716)
(-0.0823228 -0.00457271 -0.0477126)
(-0.0468131 -0.00404584 -0.0608977)
(-0.0113749 -0.000353377 -0.0323197)
(-0.006778 -0.00813186 0.0312892)
(-0.030036 -0.0115385 0.0598812)
(-0.0628447 -0.011108 0.0656438)
(-0.093092 -0.00920369 0.0569172)
(-0.11724 -0.00685011 0.0359967)
(-0.131032 -0.00466295 0.00287762)
(-0.129074 -0.00325076 -0.0393501)
(-0.105513 -0.00313106 -0.0788734)
(-0.058985 -0.00330706 -0.089947)
(-0.0138988 -0.000978048 -0.0441888)
(-0.0080168 -0.0060967 0.031339)
(-0.0355425 -0.00892131 0.0610013)
(-0.0740306 -0.00857309 0.0662356)
(-0.108658 -0.00694313 0.0550701)
(-0.135121 -0.00485089 0.0299576)
(-0.148781 -0.00279729 -0.0085048)
(-0.144252 -0.00143025 -0.0558674)
(-0.116158 -0.00131642 -0.098205)
(-0.0640959 -0.00183142 -0.106653)
(-0.0147305 -0.000834841 -0.0506304)
(-0.00854747 -0.00222109 0.0309896)
(-0.0379935 -0.00329297 0.0607654)
(-0.0790427 -0.00315928 0.0656151)
(-0.115539 -0.00252674 0.053302)
(-0.142824 -0.00170544 0.0263498)
(-0.156126 -0.000891017 -0.014303)
(-0.150213 -0.000341625 -0.0635556)
(-0.120119 -0.000305723 -0.106686)
(-0.0658943 -0.000560037 -0.113715)
(-0.0149625 -0.00031626 -0.053277)
(-0.00854747 0.0022211 0.0309896)
(-0.0379935 0.00329297 0.0607654)
(-0.0790427 0.00315927 0.0656151)
(-0.115539 0.00252673 0.053302)
(-0.142824 0.00170544 0.0263498)
(-0.156126 0.000891014 -0.014303)
(-0.150213 0.000341624 -0.0635556)
(-0.120119 0.000305723 -0.106686)
(-0.0658943 0.000560038 -0.113715)
(-0.0149625 0.000316261 -0.053277)
(-0.0080168 0.00609671 0.031339)
(-0.0355425 0.00892131 0.0610013)
(-0.0740306 0.00857308 0.0662356)
(-0.108658 0.00694312 0.0550701)
(-0.135121 0.00485088 0.0299576)
(-0.148781 0.00279729 -0.0085048)
(-0.144252 0.00143025 -0.0558674)
(-0.116158 0.00131642 -0.098205)
(-0.0640959 0.00183142 -0.106653)
(-0.0147305 0.000834842 -0.0506304)
(-0.00677799 0.00813186 0.0312892)
(-0.030036 0.0115385 0.0598812)
(-0.0628447 0.0111079 0.0656438)
(-0.093092 0.00920369 0.0569172)
(-0.11724 0.00685011 0.0359967)
(-0.131032 0.00466295 0.00287762)
(-0.129074 0.00325076 -0.0393501)
(-0.105513 0.00313106 -0.0788734)
(-0.058985 0.00330706 -0.089947)
(-0.0138988 0.000978049 -0.0441888)
(-0.00461976 0.00681895 0.0285619)
(-0.020755 0.00913907 0.0527708)
(-0.0439908 0.00878967 0.0583401)
(-0.0662235 0.00750452 0.0531934)
(-0.0851489 0.00605234 0.0392284)
(-0.0975073 0.00492938 0.0158386)
(-0.0984643 0.00441436 -0.0157716)
(-0.0823228 0.00457271 -0.0477126)
(-0.0468131 0.00404584 -0.0608977)
(-0.0113749 0.000353377 -0.0323197)
(-0.00156489 0.00257313 0.0172552)
(-0.00766177 0.0032518 0.029187)
(-0.0169114 0.00311431 0.0321916)
(-0.0262361 0.00271767 0.0309737)
(-0.0350338 0.00232181 0.0263414)
(-0.0418655 0.00212709 0.0174941)
(-0.0440236 0.00221651 0.00403578)
(-0.037978 0.00246193 -0.0115126)
(-0.0217426 0.00204722 -0.0212391)
(-0.00529476 -9.28839e-05 -0.0137844)
(-0.00220794 -0.00321302 0.0274755)
(-0.00936045 -0.00392205 0.0445337)
(-0.019356 -0.00338547 0.0479715)
(-0.0295733 -0.00228532 0.0456704)
(-0.0404313 -0.000993212 0.0389153)
(-0.0511632 8.4819e-05 0.0261212)
(-0.0584767 0.000476424 0.00562076)
(-0.0561188 -0.00018933 -0.0203269)
(-0.0380684 -0.000996993 -0.0400539)
(-0.0117347 -2.10486e-05 -0.0309106)
(-0.00607896 -0.00836227 0.0453045)
(-0.0252419 -0.0107616 0.0801661)
(-0.0514708 -0.00921564 0.0868899)
(-0.0765864 -0.00578232 0.0788522)
(-0.0996869 -0.00154478 0.0589465)
(-0.118341 0.00236127 0.0253969)
(-0.126746 0.00445979 -0.0222652)
(-0.115256 0.00322899 -0.0754304)
(-0.0759668 6.50362e-05 -0.106145)
(-0.0225996 -0.000146267 -0.0674598)
(-0.00871085 -0.00978358 0.050265)
(-0.0363647 -0.0132627 0.091623)
(-0.0737397 -0.0111975 0.0986524)
(-0.107845 -0.0063586 0.0858494)
(-0.136507 -0.000240033 0.0568079)
(-0.15638 0.00556602 0.0104795)
(-0.161383 0.00883435 -0.0516735)
(-0.142133 0.00732168 -0.116783)
(-0.091978 0.00238999 -0.14841)
(-0.0268391 -0.000187236 -0.088011)
(-0.010188 -0.00723502 0.051151)
(-0.0428528 -0.0100862 0.0942749)
(-0.0866836 -0.00841489 0.100674)
(-0.125384 -0.0044289 0.0848139)
(-0.155969 0.000628795 0.050721)
(-0.174834 0.00539445 -0.00186333)
(-0.176503 0.00796135 -0.0701192)
(-0.152725 0.00657398 -0.139385)
(-0.0980593 0.00244918 -0.169882)
(-0.0284162 -7.52503e-05 -0.098032)
(-0.0108063 -0.0026161 0.0511046)
(-0.045681 -0.00369044 0.0945439)
(-0.0923387 -0.00305798 0.100486)
(-0.132864 -0.0015427 0.0832533)
(-0.163916 0.000376674 0.0470989)
(-0.181879 0.00216423 -0.00777278)
(-0.181815 0.00309401 -0.0780214)
(-0.156237 0.00253001 -0.148453)
(-0.100151 0.000973906 -0.178249)
(-0.0289846 -1.12737e-05 -0.101893)
(-0.0108063 0.00261611 0.0511046)
(-0.045681 0.00369043 0.0945439)
(-0.0923387 0.00305797 0.100486)
(-0.132864 0.00154269 0.0832534)
(-0.163916 -0.000376681 0.0470989)
(-0.181879 -0.00216424 -0.00777278)
(-0.181815 -0.00309401 -0.0780214)
(-0.156237 -0.00253001 -0.148453)
(-0.100151 -0.000973905 -0.178249)
(-0.0289846 1.12755e-05 -0.101893)
(-0.010188 0.00723502 0.051151)
(-0.0428528 0.0100862 0.0942749)
(-0.0866836 0.00841488 0.100674)
(-0.125384 0.00442889 0.0848139)
(-0.155969 -0.000628799 0.050721)
(-0.174834 -0.00539446 -0.00186333)
(-0.176503 -0.00796135 -0.0701192)
(-0.152725 -0.00657398 -0.139385)
(-0.0980593 -0.00244918 -0.169882)
(-0.0284162 7.5252e-05 -0.098032)
(-0.00871085 0.00978358 0.050265)
(-0.0363647 0.0132627 0.091623)
(-0.0737396 0.0111975 0.0986524)
(-0.107845 0.0063586 0.0858494)
(-0.136507 0.000240032 0.056808)
(-0.15638 -0.00556602 0.0104795)
(-0.161383 -0.00883434 -0.0516735)
(-0.142133 -0.00732167 -0.116783)
(-0.091978 -0.00238999 -0.14841)
(-0.0268391 0.000187237 -0.088011)
(-0.00607896 0.00836227 0.0453045)
(-0.0252419 0.0107615 0.0801661)
(-0.0514708 0.00921563 0.0868899)
(-0.0765864 0.00578232 0.0788522)
(-0.0996869 0.00154478 0.0589465)
(-0.118341 -0.00236127 0.0253969)
(-0.126746 -0.00445979 -0.0222652)
(-0.115256 -0.00322899 -0.0754304)
(-0.0759668 -6.50351e-05 -0.106145)
(-0.0225996 0.000146267 -0.0674598)
(-0.00220794 0.00321302 0.0274755)
(-0.00936045 0.00392205 0.0445337)
(-0.019356 0.00338547 0.0479715)
(-0.0295733 0.00228532 0.0456704)
(-0.0404313 0.000993213 0.0389153)
(-0.0511632 -8.48194e-05 0.0261212)
(-0.0584767 -0.000476424 0.00562076)
(-0.0561188 0.000189331 -0.0203269)
(-0.0380684 0.000996993 -0.0400539)
(-0.0117347 2.10487e-05 -0.0309106)
(-0.0036484 -0.00382221 0.0403456)
(-0.0120425 -0.00433364 0.0614411)
(-0.0213645 -0.00300399 0.0637134)
(-0.0306957 -0.000650164 0.0592574)
(-0.0423201 0.00224945 0.049971)
(-0.0570546 0.0050566 0.0332488)
(-0.0717362 0.00662994 0.00533492)
(-0.0771767 0.00552092 -0.033593)
(-0.0615774 0.00219739 -0.0689144)
(-0.0225007 -0.000351819 -0.0623784)
(-0.00840798 -0.00970692 0.0656812)
(-0.0301104 -0.0116234 0.110376)
(-0.0563681 -0.00791383 0.116507)
(-0.0804777 -0.000983637 0.10472)
(-0.104195 0.00764859 0.0792235)
(-0.127393 0.015958 0.0366144)
(-0.144736 0.0205682 -0.026872)
(-0.143332 0.0174866 -0.105516)
(-0.109303 0.00753419 -0.165209)
(-0.0383442 -0.000844834 -0.127218)
(-0.0112617 -0.0110912 0.0730254)
(-0.0419958 -0.0140249 0.126641)
(-0.0797691 -0.00927184 0.13364)
(-0.112354 -8.83152e-05 0.116729)
(-0.140261 0.0112632 0.0812553)
(-0.162732 0.0217314 0.0245826)
(-0.174968 0.0267868 -0.0555727)
(-0.165566 0.022077 -0.150248)
(-0.123747 0.00951291 -0.216944)
(-0.0431031 -0.000514769 -0.15882)
(-0.0127539 -0.00807331 0.07479)
(-0.0486149 -0.0105067 0.131044)
(-0.0927616 -0.00678623 0.137682)
(-0.129174 0.000478281 0.117798)
(-0.157599 0.00935257 0.07748)
(-0.177381 0.0172198 0.0149553)
(-0.18512 0.0204474 -0.0712041)
(-0.171534 0.0162352 -0.171226)
(-0.127947 0.00681132 -0.239898)
(-0.0448777 -0.000179625 -0.172745)
(-0.0133419 -0.00289489 0.075071)
(-0.0513762 -0.00381334 0.131919)
(-0.0981775 -0.00243128 0.138207)
(-0.135913 0.00027378 0.117068)
(-0.164019 0.00354502 0.0749764)
(-0.182123 0.0063799 0.0106201)
(-0.187796 0.0074151 -0.0772394)
(-0.172896 0.00575773 -0.178863)
(-0.129356 0.00237782 -0.248245)
(-0.0456352 -2.4294e-05 -0.177905)
(-0.0133419 0.00289489 0.075071)
(-0.0513762 0.00381334 0.131919)
(-0.0981775 0.00243127 0.138207)
(-0.135913 -0.000273789 0.117068)
(-0.164019 -0.00354503 0.0749764)
(-0.182123 -0.0063799 0.0106201)
(-0.187796 -0.0074151 -0.0772394)
(-0.172896 -0.00575773 -0.178863)
(-0.129356 -0.00237781 -0.248245)
(-0.0456352 2.42961e-05 -0.177905)
(-0.0127539 0.00807331 0.07479)
(-0.0486149 0.0105067 0.131044)
(-0.0927616 0.00678622 0.137682)
(-0.129174 -0.000478288 0.117798)
(-0.157599 -0.00935257 0.07748)
(-0.177381 -0.0172198 0.0149553)
(-0.18512 -0.0204474 -0.0712041)
(-0.171534 -0.0162352 -0.171226)
(-0.127947 -0.00681132 -0.239898)
(-0.0448777 0.000179627 -0.172745)
(-0.0112617 0.0110912 0.0730254)
(-0.0419958 0.0140249 0.126641)
(-0.0797691 0.00927184 0.13364)
(-0.112354 8.83115e-05 0.116729)
(-0.140261 -0.0112632 0.0812553)
(-0.162732 -0.0217314 0.0245826)
(-0.174968 -0.0267868 -0.0555727)
(-0.165566 -0.022077 -0.150248)
(-0.123747 -0.00951291 -0.216944)
(-0.0431031 0.000514771 -0.15882)
(-0.00840798 0.00970692 0.0656812)
(-0.0301104 0.0116234 0.110376)
(-0.0563681 0.00791383 0.116507)
(-0.0804777 0.000983636 0.10472)
(-0.104195 -0.00764858 0.0792235)
(-0.127393 -0.015958 0.0366144)
(-0.144736 -0.0205682 -0.026872)
(-0.143332 -0.0174866 -0.105516)
(-0.109303 -0.00753419 -0.165209)
(-0.0383442 0.000844836 -0.127218)
(-0.0036484 0.00382221 0.0403456)
(-0.0120425 0.00433363 0.0614411)
(-0.0213645 0.00300398 0.0637134)
(-0.0306957 0.000650164 0.0592574)
(-0.0423201 -0.00224945 0.049971)
(-0.0570546 -0.0050566 0.0332488)
(-0.0717362 -0.00662994 0.00533492)
(-0.0771767 -0.00552092 -0.033593)
(-0.0615774 -0.00219739 -0.0689144)
(-0.0225007 0.00035182 -0.0623784)
(-0.00742522 -0.0046451 0.05801)
(-0.0178459 -0.00475419 0.0784432)
(-0.0230977 -0.00223228 0.075971)
(-0.0275393 0.00182651 0.0671689)
(-0.0361571 0.00682861 0.0546686)
(-0.0523059 0.0119914 0.0347344)
(-0.0746286 0.0154716 0.00102291)
(-0.0918763 0.0141673 -0.0513376)
(-0.0869952 0.00721452 -0.107462)
(-0.0359287 -0.00124906 -0.115282)
(-0.0135443 -0.0112556 0.0915702)
(-0.0375839 -0.0122105 0.140632)
(-0.0576177 -0.00555682 0.141737)
(-0.0725317 0.00556908 0.124333)
(-0.0881324 0.0191571 0.094258)
(-0.108158 0.0324483 0.0465856)
(-0.130576 0.0401914 -0.0266877)
(-0.141952 0.0350869 -0.128779)
(-0.127389 0.0161237 -0.227309)
(-0.0498973 -0.00392796 -0.217154)
(-0.0163379 -0.0123464 0.100725)
(-0.0486781 -0.0143237 0.161206)
(-0.0788936 -0.00633096 0.164249)
(-0.0997355 0.00742348 0.142649)
(-0.115926 0.0237826 0.103707)
(-0.131051 0.0385236 0.0431971)
(-0.144766 0.0451229 -0.0459675)
(-0.146905 0.0367038 -0.166227)
(-0.129987 0.0150643 -0.279475)
(-0.0510277 -0.00366342 -0.258679)
(-0.017575 -0.00877291 0.102905)
(-0.0542822 -0.0105351 0.166918)
(-0.0897586 -0.00453617 0.170319)
(-0.112796 0.00588445 0.146711)
(-0.12749 0.018019 0.104214)
(-0.137846 0.0282959 0.0392851)
(-0.14566 0.031802 -0.054764)
(-0.143808 0.0244913 -0.181065)
(-0.128765 0.00930481 -0.299955)
(-0.0516177 -0.00221636 -0.275492)
(-0.017998 -0.00310862 0.103297)
(-0.0564305 -0.00378902 0.16817)
(-0.0939305 -0.00160791 0.171527)
(-0.117497 0.00218606 0.14715)
(-0.131039 0.00654598 0.103555)
(-0.139013 0.0101109 0.0374891)
(-0.144526 0.011108 -0.0577769)
(-0.141885 0.00830257 -0.186105)
(-0.128583 0.00303847 -0.30724)
(-0.0522013 -0.000694633 -0.281684)
(-0.017998 0.00310863 0.103297)
(-0.0564305 0.00378902 0.16817)
(-0.0939305 0.0016079 0.171527)
(-0.117497 -0.00218607 0.14715)
(-0.131039 -0.00654598 0.103555)
(-0.139013 -0.0101109 0.0374891)
(-0.144526 -0.011108 -0.0577769)
(-0.141885 -0.00830257 -0.186105)
(-0.128583 -0.00303847 -0.30724)
(-0.0522013 0.000694636 -0.281684)
(-0.017575 0.00877292 0.102905)
(-0.0542822 0.0105351 0.166918)
(-0.0897586 0.00453616 0.170319)
(-0.112796 -0.00588446 0.146711)
(-0.12749 -0.018019 0.104214)
(-0.137846 -0.0282959 0.0392851)
(-0.14566 -0.031802 -0.054764)
(-0.143808 -0.0244913 -0.181065)
(-0.128765 -0.00930481 -0.299955)
(-0.0516177 0.00221636 -0.275492)
(-0.0163379 0.0123464 0.100725)
(-0.0486781 0.0143237 0.161206)
(-0.0788936 0.00633096 0.164249)
(-0.0997355 -0.00742348 0.142649)
(-0.115926 -0.0237826 0.103707)
(-0.131051 -0.0385236 0.0431971)
(-0.144766 -0.0451229 -0.0459675)
(-0.146905 -0.0367038 -0.166227)
(-0.129987 -0.0150643 -0.279475)
(-0.0510277 0.00366342 -0.258679)
(-0.0135443 0.0112556 0.0915702)
(-0.0375839 0.0122105 0.140632)
(-0.0576177 0.00555681 0.141737)
(-0.0725317 -0.00556908 0.124333)
(-0.0881324 -0.0191571 0.094258)
(-0.108158 -0.0324483 0.0465856)
(-0.130576 -0.0401914 -0.0266877)
(-0.141952 -0.0350869 -0.128779)
(-0.127389 -0.0161237 -0.227309)
(-0.0498973 0.00392796 -0.217154)
(-0.00742522 0.0046451 0.05801)
(-0.0178459 0.00475419 0.0784432)
(-0.0230977 0.00223228 0.075971)
(-0.0275393 -0.00182651 0.0671689)
(-0.0361571 -0.00682861 0.0546686)
(-0.0523059 -0.0119914 0.0347344)
(-0.0746286 -0.0154716 0.00102291)
(-0.0918763 -0.0141673 -0.0513376)
(-0.0869952 -0.00721452 -0.107462)
(-0.0359287 0.00124906 -0.115282)
(-0.016766 -0.0064062 0.0815853)
(-0.0296841 -0.00639187 0.0916938)
(-0.0208298 -0.00272852 0.0798904)
(-0.0120842 0.00295962 0.0642055)
(-0.0102107 0.00975489 0.0481764)
(-0.0207775 0.0170663 0.026945)
(-0.0465114 0.0228842 -0.00889932)
(-0.0764543 0.0218709 -0.0710985)
(-0.096332 0.010596 -0.15028)
(-0.041759 -0.00573255 -0.19413)
(-0.0264057 -0.014411 0.121436)
(-0.0531816 -0.0150553 0.163899)
(-0.0509721 -0.00613299 0.154417)
(-0.0408755 0.00796946 0.128627)
(-0.0331011 0.0246625 0.095666)
(-0.0346762 0.0414571 0.0498919)
(-0.0508132 0.0529678 -0.020946)
(-0.0711903 0.0477672 -0.133711)
(-0.0964825 0.0200239 -0.271067)
(-0.0362288 -0.0134969 -0.324026)
(-0.0294504 -0.0148006 0.130698)
(-0.0633432 -0.0166821 0.187381)
(-0.0681677 -0.00679455 0.181469)
(-0.0592944 0.00914089 0.153061)
(-0.0469667 0.0275744 0.11362)
(-0.0380725 0.044489 0.0581273)
(-0.0406907 0.0534408 -0.0248339)
(-0.048823 0.0441642 -0.154294)
(-0.0774888 0.0152515 -0.312056)
(-0.0281863 -0.0115469 -0.365423)
(-0.0304124 -0.0100909 0.132533)
(-0.067458 -0.0118316 0.19368)
(-0.0757471 -0.00476408 0.18925)
(-0.0671828 0.00667893 0.160259)
(-0.0519054 0.0196563 0.118914)
(-0.0369607 0.0308349 0.0605558)
(-0.0327662 0.0355047 -0.0259298)
(-0.0364624 0.0276047 -0.16113)
(-0.0698132 0.00856964 -0.326699)
(-0.0265653 -0.00670019 -0.380793)
(-0.0306334 -0.00350317 0.132769)
(-0.0687254 -0.00418031 0.194976)
(-0.0781638 -0.00166978 0.19095)
(-0.0694566 0.00239295 0.161856)
(-0.052772 0.0069373 0.120116)
(-0.0353964 0.0107182 0.0611497)
(-0.0290047 0.0120677 -0.0262738)
(-0.0321115 0.00909689 -0.163578)
(-0.0682872 0.00270452 -0.3321)
(-0.0268329 -0.00207521 -0.386478)
(-0.0306334 0.00350317 0.132769)
(-0.0687254 0.0041803 0.194976)
(-0.0781638 0.00166977 0.19095)
(-0.0694566 -0.00239296 0.161856)
(-0.052772 -0.00693731 0.120116)
(-0.0353964 -0.0107182 0.0611497)
(-0.0290047 -0.0120677 -0.0262738)
(-0.0321115 -0.00909689 -0.163578)
(-0.0682872 -0.00270451 -0.3321)
(-0.0268329 0.00207521 -0.386478)
(-0.0304124 0.0100909 0.132533)
(-0.067458 0.0118316 0.19368)
(-0.0757471 0.00476407 0.18925)
(-0.0671828 -0.00667894 0.160259)
(-0.0519054 -0.0196563 0.118914)
(-0.0369607 -0.0308349 0.0605558)
(-0.0327662 -0.0355047 -0.0259298)
(-0.0364624 -0.0276047 -0.16113)
(-0.0698132 -0.00856964 -0.326699)
(-0.0265653 0.00670019 -0.380793)
(-0.0294504 0.0148006 0.130698)
(-0.0633433 0.0166821 0.187381)
(-0.0681677 0.00679454 0.181469)
(-0.0592944 -0.00914089 0.153061)
(-0.0469667 -0.0275744 0.11362)
(-0.0380725 -0.044489 0.0581273)
(-0.0406907 -0.0534408 -0.0248339)
(-0.048823 -0.0441642 -0.154294)
(-0.0774888 -0.0152515 -0.312056)
(-0.0281863 0.0115469 -0.365423)
(-0.0264057 0.014411 0.121436)
(-0.0531816 0.0150553 0.163899)
(-0.0509721 0.00613299 0.154417)
(-0.0408755 -0.00796946 0.128627)
(-0.0331011 -0.0246625 0.095666)
(-0.0346762 -0.0414571 0.0498919)
(-0.0508133 -0.0529678 -0.020946)
(-0.0711903 -0.0477672 -0.133711)
(-0.0964825 -0.0200239 -0.271067)
(-0.0362288 0.0134969 -0.324026)
(-0.016766 0.0064062 0.0815853)
(-0.0296841 0.00639187 0.0916938)
(-0.0208298 0.00272852 0.0798904)
(-0.0120842 -0.00295962 0.0642055)
(-0.0102107 -0.00975489 0.0481764)
(-0.0207775 -0.0170663 0.026945)
(-0.0465114 -0.0228842 -0.00889932)
(-0.0764543 -0.0218709 -0.0710985)
(-0.096332 -0.010596 -0.15028)
(-0.041759 0.00573255 -0.19413)
(-0.0239286 -0.0111715 0.150608)
(-0.0211057 -0.0116619 0.0982989)
(0.0260505 -0.00716276 0.0629577)
(0.0596067 -0.000771727 0.041822)
(0.0804134 0.00643839 0.0257422)
(0.0833321 0.0142894 0.00824447)
(0.0618653 0.021679 -0.0201313)
(0.0249495 0.0211663 -0.0775543)
(-0.0423233 0.00572599 -0.172788)
(-0.00689226 -0.0174339 -0.258899)
(-0.0428852 -0.022732 0.209914)
(-0.0435876 -0.0252979 0.168679)
(0.0192769 -0.0162747 0.126515)
(0.0739883 -0.00258307 0.0948284)
(0.118335 0.0133392 0.0660862)
(0.146786 0.0300052 0.0331083)
(0.145849 0.0448377 -0.015828)
(0.127674 0.043556 -0.106203)
(0.0380952 0.0114611 -0.255198)
(0.043046 -0.030982 -0.368689)
(-0.0482555 -0.0203791 0.219896)
(-0.0534814 -0.0251316 0.188301)
(0.00823828 -0.0170261 0.14903)
(0.0673353 -0.00352471 0.116328)
(0.12039 0.0125033 0.0840558)
(0.162598 0.0283892 0.0453406)
(0.175809 0.0405214 -0.0106058)
(0.172148 0.0366745 -0.109804)
(0.0781137 0.00734526 -0.274525)
(0.0622417 -0.0217476 -0.394557)
(-0.0492198 -0.0128858 0.22076)
(-0.0561536 -0.0167042 0.192141)
(0.00420416 -0.0114745 0.154622)
(0.0642525 -0.00250316 0.122446)
(0.120125 0.00808955 0.0896341)
(0.167392 0.018269 0.0492774)
(0.18547 0.0252185 -0.00911417)
(0.186046 0.0218354 -0.111376)
(0.0879051 0.00447786 -0.28143)
(0.0652444 -0.0112566 -0.403377)
(-0.0492026 -0.00431624 0.220476)
(-0.0564367 -0.00572016 0.192421)
(0.00359313 -0.00393868 0.155449)
(0.0640224 -0.000865668 0.123599)
(0.120777 0.00273567 0.0908517)
(0.169508 0.00613723 0.0501921)
(0.188701 0.00832578 -0.00896974)
(0.189599 0.00708394 -0.112471)
(0.088926 0.00153373 -0.284318)
(0.0648493 -0.00330982 -0.406599)
(-0.0492026 0.00431624 0.220476)
(-0.0564367 0.00572016 0.192421)
(0.00359313 0.00393867 0.155449)