/*--------------------------------*- C++ -*----------------------------------*\
  =========                 |
  \\      /  F ield         | OpenFOAM: The Open Source CFD Toolbox
   \\    /   O peration     | Website:  https://openfoam.org
    \\  /    A nd           | Version:  9
     \\/     M anipulation  |
\*---------------------------------------------------------------------------*/
FoamFile
{
    format      ascii;
    class       volVectorField;
    location    "0.55";
    object      U;
}
// * * * * * * * * * * * * * * * * * * * * * * * * * * * * * * * * * * * * * //

dimensions      [0 1 -1 0 0 0 0];

internalField   nonuniform List<vector> 
1000
(
(-8.85037e-06 -0.000469761 0.000348341)
(-0.00149284 -0.000418544 0.00106206)
(-0.00466279 -0.000373928 0.00138816)
(-0.00799305 -0.000480629 0.00151179)
(-0.0108149 -0.000775887 0.00145762)
(-0.0122226 -0.00122328 0.00114191)
(-0.0113159 -0.00167181 0.000549726)
(-0.0078277 -0.00184492 -0.000102102)
(-0.00265157 -0.00147709 -0.000291329)
(8.4131e-05 -0.000440078 0.000316749)
(-0.000205486 -0.00163616 0.00059678)
(-0.00350513 -0.00197132 0.00223555)
(-0.0100861 -0.00203976 0.0029318)
(-0.0167889 -0.00236811 0.00299313)
(-0.022201 -0.00310421 0.00250392)
(-0.0246354 -0.00415246 0.0013687)
(-0.0225082 -0.0051241 -0.00029655)
(-0.0154694 -0.00535005 -0.00179303)
(-0.00545797 -0.00425881 -0.00182606)
(-5.26564e-05 -0.00156941 0.000159619)
(-0.000385005 -0.00241807 0.000315558)
(-0.00492891 -0.00335449 0.00229695)
(-0.0137004 -0.00364478 0.00312749)
(-0.0224664 -0.00408907 0.0030599)
(-0.0293366 -0.00492356 0.00217599)
(-0.0321414 -0.00603647 0.000396015)
(-0.0289057 -0.00693074 -0.00203021)
(-0.0193597 -0.00693092 -0.00392178)
(-0.00630737 -0.00549943 -0.00345184)
(0.000274079 -0.00233531 -0.000113747)
(-0.000500808 -0.00203144 -5.60424e-05)
(-0.00584472 -0.00295531 0.00198403)
(-0.0160094 -0.00325651 0.00283928)
(-0.0260568 -0.00361509 0.002663)
(-0.0337785 -0.00423235 0.00150656)
(-0.0366434 -0.00501954 -0.00069712)
(-0.0324772 -0.00557658 -0.00357239)
(-0.0212174 -0.00545926 -0.00559756)
(-0.00629402 -0.00432939 -0.00462363)
(0.000714541 -0.00195067 -0.000298872)
(-0.000559045 -0.000781039 -0.000284486)
(-0.00629745 -0.00115703 0.00174351)
(-0.0171434 -0.00128134 0.00259602)
(-0.0278071 -0.00141548 0.00236135)
(-0.0359144 -0.00163597 0.00106737)
(-0.0387593 -0.00190862 -0.0013469)
(-0.0340768 -0.00209488 -0.00441377)
(-0.0219391 -0.00203275 -0.00646098)
(-0.00613016 -0.00161315 -0.00519628)
(0.00099216 -0.000745798 -0.000381943)
(-0.000559045 0.000781053 -0.000284485)
(-0.00629745 0.00115704 0.00174351)
(-0.0171434 0.00128135 0.00259602)
(-0.0278071 0.00141548 0.00236135)
(-0.0359144 0.00163597 0.00106737)
(-0.0387593 0.00190862 -0.0013469)
(-0.0340768 0.00209488 -0.00441377)
(-0.0219391 0.00203275 -0.00646098)
(-0.00613016 0.00161315 -0.00519628)
(0.00099216 0.000745797 -0.000381944)
(-0.000500805 0.00203145 -5.6039e-05)
(-0.00584471 0.00295532 0.00198403)
(-0.0160094 0.00325652 0.00283928)
(-0.0260568 0.00361509 0.002663)
(-0.0337785 0.00423235 0.00150656)
(-0.0366434 0.00501954 -0.00069712)
(-0.0324772 0.00557658 -0.00357239)
(-0.0212174 0.00545926 -0.00559756)
(-0.00629402 0.00432939 -0.00462363)
(0.00071454 0.00195067 -0.000298872)
(-0.000384998 0.00241808 0.000315566)
(-0.0049289 0.0033545 0.00229695)
(-0.0137004 0.00364478 0.00312749)
(-0.0224664 0.00408907 0.0030599)
(-0.0293366 0.00492356 0.00217599)
(-0.0321414 0.00603647 0.000396015)
(-0.0289057 0.00693074 -0.00203021)
(-0.0193597 0.00693092 -0.00392179)
(-0.00630737 0.00549943 -0.00345184)
(0.000274079 0.00233531 -0.000113747)
(-0.000205463 0.00163613 0.000596801)
(-0.00350512 0.00197131 0.00223556)
(-0.0100861 0.00203976 0.00293181)
(-0.0167889 0.00236811 0.00299314)
(-0.022201 0.00310421 0.00250392)
(-0.0246354 0.00415246 0.0013687)
(-0.0225082 0.0051241 -0.00029655)
(-0.0154694 0.00535005 -0.00179303)
(-0.00545798 0.00425881 -0.00182606)
(-5.2657e-05 0.00156941 0.00015962)
(-8.79961e-06 0.000469719 0.00034839)
(-0.0014928 0.000418532 0.00106208)
(-0.0046628 0.000373926 0.00138816)
(-0.00799306 0.000480628 0.00151179)
(-0.0108149 0.000775887 0.00145762)
(-0.0122226 0.00122328 0.00114191)
(-0.0113159 0.00167181 0.000549726)
(-0.0078277 0.00184492 -0.000102103)
(-0.00265157 0.00147709 -0.000291328)
(8.41311e-05 0.000440079 0.000316751)
(-0.000651419 -0.00134299 0.00335327)
(-0.00416237 -0.00169394 0.00668774)
(-0.0101781 -0.00173037 0.0079359)
(-0.0162913 -0.00178467 0.00805572)
(-0.0213714 -0.00198027 0.00717107)
(-0.0239369 -0.00232828 0.00505546)
(-0.0224942 -0.0026845 0.00180084)
(-0.0163832 -0.00271071 -0.00157936)
(-0.00677917 -0.00199162 -0.0029539)
(-0.000683812 -0.000285561 -0.000660172)
(-0.00195969 -0.00390985 0.00557325)
(-0.0106919 -0.00542402 0.0126448)
(-0.0247373 -0.00571761 0.0151011)
(-0.0384236 -0.00591468 0.0144904)
(-0.049042 -0.00641909 0.0111858)
(-0.0536298 -0.00722543 0.00506438)
(-0.0495328 -0.00795705 -0.00303755)
(-0.0358904 -0.00776196 -0.0101384)
(-0.0155887 -0.00579918 -0.0111224)
(-0.00216352 -0.00154146 -0.00305327)
(-0.00294001 -0.00512504 0.00541424)
(-0.0154264 -0.00765313 0.013808)
(-0.0349741 -0.00823637 0.0165376)
(-0.0534614 -0.00850999 0.0149978)
(-0.0671406 -0.00905686 0.00958196)
(-0.0722697 -0.00985047 0.000369431)
(-0.065698 -0.0103974 -0.0109547)
(-0.0467735 -0.00986371 -0.0197547)
(-0.0198294 -0.00749971 -0.018875)
(-0.00254392 -0.00270236 -0.00524068)
(-0.00354623 -0.00409765 0.0046364)
(-0.0184453 -0.00632885 0.0132527)
(-0.0415011 -0.0068671 0.01588)
(-0.0628871 -0.00707728 0.0135777)
(-0.0782017 -0.00744427 0.0066845)
(-0.0832265 -0.00794515 -0.00450718)
(-0.0746633 -0.0081615 -0.0176835)
(-0.0522997 -0.00762363 -0.027044)
(-0.0214704 -0.00585882 -0.0242946)
(-0.00239637 -0.00235737 -0.00667429)
(-0.00383021 -0.00154355 0.0040898)
(-0.0199029 -0.0024166 0.0126534)
(-0.0446655 -0.00262993 0.0151591)
(-0.0674125 -0.00270443 0.012444)
(-0.0834208 -0.00282454 0.0048067)
(-0.0882498 -0.00298259 -0.00732299)
(-0.0785958 -0.00302645 -0.0212794)
(-0.0545466 -0.00280773 -0.0307315)
(-0.0219584 -0.00217104 -0.0269176)
(-0.002219 -0.000915219 -0.00733781)
(-0.00383021 0.00154356 0.0040898)
(-0.0199029 0.0024166 0.0126534)
(-0.0446655 0.00262993 0.0151591)
(-0.0674125 0.00270443 0.012444)
(-0.0834208 0.00282454 0.0048067)
(-0.0882498 0.00298259 -0.00732299)
(-0.0785958 0.00302645 -0.0212794)
(-0.0545466 0.00280773 -0.0307315)
(-0.0219584 0.00217104 -0.0269176)
(-0.002219 0.000915218 -0.00733781)
(-0.00354623 0.00409766 0.0046364)
(-0.0184453 0.00632885 0.0132527)
(-0.0415011 0.0068671 0.01588)
(-0.0628871 0.00707728 0.0135777)
(-0.0782017 0.00744427 0.0066845)
(-0.0832265 0.00794515 -0.00450717)
(-0.0746633 0.0081615 -0.0176835)
(-0.0522997 0.00762363 -0.027044)
(-0.0214704 0.00585882 -0.0242946)
(-0.00239637 0.00235737 -0.00667429)
(-0.00294 0.00512504 0.00541425)
(-0.0154264 0.00765312 0.013808)
(-0.0349741 0.00823637 0.0165376)
(-0.0534614 0.00850999 0.0149978)
(-0.0671406 0.00905686 0.00958196)
(-0.0722697 0.00985047 0.000369432)
(-0.065698 0.0103974 -0.0109547)
(-0.0467735 0.00986371 -0.0197547)
(-0.0198294 0.00749971 -0.018875)
(-0.00254392 0.00270236 -0.00524068)
(-0.00195968 0.00390984 0.00557326)
(-0.0106919 0.00542401 0.0126448)
(-0.0247373 0.00571761 0.0151011)
(-0.0384236 0.00591468 0.0144904)
(-0.049042 0.00641909 0.0111858)
(-0.0536298 0.00722544 0.00506438)
(-0.0495328 0.00795705 -0.00303755)
(-0.0358904 0.00776196 -0.0101384)
(-0.0155887 0.00579918 -0.0111224)
(-0.00216352 0.00154146 -0.00305327)
(-0.000651403 0.00134298 0.00335331)
(-0.00416236 0.00169393 0.00668775)
(-0.0101781 0.00173037 0.0079359)
(-0.0162913 0.00178467 0.00805572)
(-0.0213714 0.00198027 0.00717107)
(-0.0239369 0.00232828 0.00505546)
(-0.0224942 0.0026845 0.00180084)
(-0.0163832 0.00271071 -0.00157936)
(-0.00677917 0.00199162 -0.0029539)
(-0.000683812 0.000285562 -0.000660171)
(-0.00112034 -0.00210938 0.00973059)
(-0.00603859 -0.00275622 0.0173786)
(-0.0139175 -0.0027664 0.0198119)
(-0.0218959 -0.0026274 0.0195213)
(-0.0288799 -0.00256484 0.0168593)
(-0.0331852 -0.00269201 0.0114124)
(-0.0326915 -0.00293134 0.00335982)
(-0.0256696 -0.00296137 -0.00521662)
(-0.0124255 -0.00218228 -0.00956362)
(-0.00216946 -4.21349e-05 -0.00480558)
(-0.00342378 -0.0058738 0.0161753)
(-0.0164349 -0.00820512 0.0318242)
(-0.0360006 -0.00834724 0.0363294)
(-0.054769 -0.00789322 0.0337829)
(-0.0697273 -0.00754381 0.0251459)
(-0.0773857 -0.00755775 0.0103494)
(-0.0740463 -0.00773624 -0.00885544)
(-0.0571462 -0.00747072 -0.0264033)
(-0.0282221 -0.00561673 -0.0309229)
(-0.00540482 -0.000933755 -0.0131299)
(-0.0051937 -0.00739398 0.0172235)
(-0.0242639 -0.0109514 0.0356522)
(-0.0521442 -0.0112409 0.0403238)
(-0.0778537 -0.0105243 0.0352713)
(-0.0970729 -0.00976558 0.0216466)
(-0.105406 -0.00925975 -2.42395e-05)
(-0.0987779 -0.00887624 -0.0262)
(-0.0747977 -0.00823936 -0.0477803)
(-0.0362792 -0.00640362 -0.0491293)
(-0.0066714 -0.00195324 -0.0194671)
(-0.0063172 -0.00577022 0.016628)
(-0.0293234 -0.00879825 0.0355696)
(-0.0624991 -0.00905165 0.0397383)
(-0.0922722 -0.00839301 0.0327023)
(-0.113511 -0.00760455 0.0156934)
(-0.12145 -0.00691537 -0.0101448)
(-0.112094 -0.00632776 -0.040024)
(-0.0836016 -0.00574428 -0.0629099)
(-0.0397575 -0.00458999 -0.0610227)
(-0.00693429 -0.001719 -0.0233464)
(-0.0068491 -0.002148 0.0160318)
(-0.0317663 -0.00331392 0.0349004)
(-0.0674915 -0.00340994 0.0386662)
(-0.099108 -0.00314274 0.0305773)
(-0.121094 -0.00280866 0.0119171)
(-0.128572 -0.00249626 -0.0157862)
(-0.117722 -0.00222792 -0.0471142)
(-0.0870973 -0.00200271 -0.0702204)
(-0.0409718 -0.0016285 -0.0665314)
(-0.00692453 -0.000666471 -0.0250783)
(-0.0068491 0.00214801 0.0160318)
(-0.0317663 0.00331392 0.0349004)
(-0.0674915 0.00340994 0.0386662)
(-0.099108 0.00314273 0.0305773)
(-0.121094 0.00280866 0.0119171)
(-0.128572 0.00249626 -0.0157862)
(-0.117722 0.00222792 -0.0471142)
(-0.0870973 0.00200271 -0.0702204)
(-0.0409718 0.0016285 -0.0665314)
(-0.00692453 0.000666469 -0.0250783)
(-0.0063172 0.00577023 0.016628)
(-0.0293234 0.00879825 0.0355696)
(-0.0624991 0.00905165 0.0397383)
(-0.0922722 0.00839301 0.0327023)
(-0.113511 0.00760454 0.0156934)
(-0.12145 0.00691537 -0.0101448)
(-0.112094 0.00632776 -0.040024)
(-0.0836016 0.00574428 -0.0629099)
(-0.0397575 0.00458999 -0.0610226)
(-0.00693429 0.001719 -0.0233464)
(-0.00519369 0.00739398 0.0172235)
(-0.0242639 0.0109514 0.0356522)
(-0.0521442 0.0112409 0.0403238)
(-0.0778536 0.0105243 0.0352713)
(-0.0970729 0.00976558 0.0216466)
(-0.105406 0.00925975 -2.4237e-05)
(-0.0987779 0.00887624 -0.0262)
(-0.0747977 0.00823936 -0.0477803)
(-0.0362792 0.00640362 -0.0491293)
(-0.0066714 0.00195324 -0.0194671)
(-0.00342378 0.0058738 0.0161753)
(-0.0164349 0.00820511 0.0318242)
(-0.0360006 0.00834723 0.0363294)
(-0.054769 0.00789322 0.0337829)
(-0.0697273 0.00754381 0.0251459)
(-0.0773857 0.00755775 0.0103494)
(-0.0740463 0.00773624 -0.00885544)
(-0.0571462 0.00747072 -0.0264033)
(-0.0282221 0.00561673 -0.0309229)
(-0.00540482 0.000933756 -0.0131299)
(-0.00112034 0.00210937 0.00973058)
(-0.00603859 0.00275621 0.0173786)
(-0.0139175 0.0027664 0.0198119)
(-0.0218959 0.0026274 0.0195213)
(-0.0288799 0.00256484 0.0168593)
(-0.0331852 0.00269201 0.0114124)
(-0.0326915 0.00293135 0.00335982)
(-0.0256696 0.00296137 -0.00521662)
(-0.0124255 0.00218228 -0.00956362)
(-0.00216946 4.21354e-05 -0.00480558)
(-0.00150971 -0.00281301 0.0182222)
(-0.00745981 -0.00362739 0.0309897)
(-0.0166202 -0.00342874 0.0344515)
(-0.026083 -0.00285952 0.0334152)
(-0.0352353 -0.00227433 0.0286173)
(-0.0424908 -0.00195026 0.0192342)
(-0.0449501 -0.00202028 0.00503294)
(-0.038897 -0.00233316 -0.0111925)
(-0.0222815 -0.00201009 -0.021208)
(-0.00541731 0.000119423 -0.0136581)
(-0.00465456 -0.00765893 0.0303434)
(-0.02107 -0.010425 0.0562506)
(-0.044885 -0.00984781 0.0625381)
(-0.0678189 -0.00795937 0.0572761)
(-0.0873885 -0.0058345 0.042312)
(-0.100149 -0.00422263 0.0172424)
(-0.101133 -0.00355621 -0.0161977)
(-0.0845256 -0.00390769 -0.049397)
(-0.0480255 -0.00372028 -0.0626067)
(-0.0116333 -0.000234423 -0.032773)
(-0.00708919 -0.00942073 0.0333462)
(-0.0315001 -0.013471 0.063863)
(-0.0659071 -0.0126554 0.070113)
(-0.0973809 -0.0097987 0.060578)
(-0.122069 -0.00637504 0.0376523)
(-0.135694 -0.00339481 0.00189755)
(-0.133085 -0.00172916 -0.0426725)
(-0.108524 -0.00193342 -0.0833351)
(-0.0606324 -0.00267209 -0.0936603)
(-0.0142656 -0.00077954 -0.0453127)
(-0.00864293 -0.00723495 0.0334228)
(-0.038241 -0.0106021 0.0649305)
(-0.079293 -0.00988679 0.0702172)
(-0.115486 -0.00739278 0.0574695)
(-0.142147 -0.00433193 0.0294872)
(-0.154903 -0.00156598 -0.0121734)
(-0.149025 -1.33639e-05 -0.0618807)
(-0.119543 -0.000229045 -0.104894)
(-0.0659666 -0.00126106 -0.111856)
(-0.0151615 -0.00066195 -0.0522434)
(-0.0093766 -0.00267062 0.033038)
(-0.041469 -0.00395142 0.064546)
(-0.0856534 -0.0036669 0.0691298)
(-0.12386 -0.00268819 0.0547369)
(-0.151051 -0.0014805 0.0244322)
(-0.162948 -0.000384762 -0.0196271)
(-0.155273 0.000226275 -0.0710822)
(-0.123611 0.000123056 -0.114531)
(-0.0678515 -0.000337151 -0.119661)
(-0.0154234 -0.000249912 -0.0551324)
(-0.0093766 0.00267062 0.033038)
(-0.041469 0.00395142 0.064546)
(-0.0856534 0.0036669 0.0691298)
(-0.12386 0.00268818 0.0547369)
(-0.151051 0.0014805 0.0244322)
(-0.162948 0.00038476 -0.0196271)
(-0.155273 -0.000226276 -0.0710822)
(-0.123611 -0.000123057 -0.114531)
(-0.0678515 0.000337151 -0.119661)
(-0.0154234 0.000249912 -0.0551324)
(-0.00864293 0.00723496 0.0334228)
(-0.038241 0.0106021 0.0649305)
(-0.079293 0.00988679 0.0702172)
(-0.115486 0.00739278 0.0574695)
(-0.142147 0.00433193 0.0294872)
(-0.154903 0.00156598 -0.0121734)
(-0.149025 1.33642e-05 -0.0618807)
(-0.119543 0.000229046 -0.104894)
(-0.0659666 0.00126106 -0.111856)
(-0.0151615 0.00066195 -0.0522434)
(-0.00708919 0.00942073 0.0333462)
(-0.0315001 0.013471 0.063863)
(-0.0659071 0.0126554 0.070113)
(-0.0973809 0.0097987 0.060578)
(-0.122069 0.00637504 0.0376523)
(-0.135694 0.00339481 0.00189756)
(-0.133085 0.00172916 -0.0426725)
(-0.108524 0.00193342 -0.0833351)
(-0.0606324 0.00267209 -0.0936603)
(-0.0142656 0.00077954 -0.0453127)
(-0.00465456 0.00765893 0.0303434)
(-0.02107 0.010425 0.0562506)
(-0.044885 0.00984781 0.0625381)
(-0.0678189 0.00795937 0.0572761)
(-0.0873885 0.0058345 0.042312)
(-0.100149 0.00422263 0.0172424)
(-0.101133 0.00355621 -0.0161977)
(-0.0845256 0.00390769 -0.049397)
(-0.0480255 0.00372028 -0.0626067)
(-0.0116333 0.000234424 -0.032773)
(-0.00150971 0.00281301 0.0182221)
(-0.00745981 0.00362738 0.0309897)
(-0.0166202 0.00342873 0.0344515)
(-0.026083 0.00285952 0.0334152)
(-0.0352353 0.00227433 0.0286173)
(-0.0424908 0.00195026 0.0192342)
(-0.0449501 0.00202028 0.00503295)
(-0.038897 0.00233316 -0.0111925)
(-0.0222815 0.00201009 -0.021208)
(-0.00541731 -0.000119423 -0.0136581)
(-0.00208206 -0.00340737 0.0287495)
(-0.0088738 -0.00421305 0.0468208)
(-0.0185241 -0.0035267 0.0506668)
(-0.0287299 -0.00213775 0.0483375)
(-0.0399708 -0.000560728 0.0411035)
(-0.0513264 0.00069923 0.0274637)
(-0.0592176 0.0010762 0.00596347)
(-0.0570912 0.000230551 -0.0208198)
(-0.0387911 -0.000828489 -0.0408636)
(-0.0119637 2.32378e-05 -0.0312969)
(-0.00596204 -0.00910653 0.047728)
(-0.0249816 -0.0118139 0.0846994)
(-0.0512604 -0.00973228 0.0920448)
(-0.0766638 -0.00529307 0.0834376)
(-0.100241 -6.48672e-05 0.0619222)
(-0.119491 0.0044217 0.0261132)
(-0.128421 0.00646266 -0.0238053)
(-0.117056 0.00464239 -0.0785219)
(-0.0772574 0.000733622 -0.109361)
(-0.0229829 3.83012e-05 -0.0688771)
(-0.00883949 -0.0109819 0.0532183)
(-0.0371442 -0.0148814 0.0969947)
(-0.0754068 -0.0119499 0.104287)
(-0.110018 -0.00554462 0.0900337)
(-0.138734 0.00208986 0.0583027)
(-0.158471 0.00869501 0.0088947)
(-0.163401 0.0117695 -0.0558143)
(-0.144032 0.00931284 -0.1223)
(-0.0934426 0.00335819 -0.153526)
(-0.0273355 9.8082e-05 -0.0902194)
(-0.0106331 -0.00831461 0.0543138)
(-0.0448527 -0.0115055 0.0997741)
(-0.0903931 -0.00903578 0.105845)
(-0.129625 -0.00365063 0.0876357)
(-0.15958 0.00273255 0.0500686)
(-0.177387 0.00814703 -0.00582281)
(-0.178368 0.0104324 -0.0763034)
(-0.154389 0.00816246 -0.146423)
(-0.0995303 0.00318741 -0.176086)
(-0.0289814 0.000151299 -0.100718)
(-0.0114622 -0.00304565 0.0543292)
(-0.0484666 -0.00424762 0.0999722)
(-0.0973188 -0.0032932 0.105163)
(-0.138317 -0.00122355 0.0850218)
(-0.168215 0.00121394 0.0450057)
(-0.184511 0.00324731 -0.0131549)
(-0.183425 0.00403927 -0.0852524)
(-0.157669 0.00311825 -0.156168)
(-0.101595 0.0012407 -0.184923)
(-0.0295835 7.21322e-05 -0.104797)
(-0.0114622 0.00304565 0.0543292)
(-0.0484666 0.00424761 0.0999722)
(-0.0973188 0.00329319 0.105163)
(-0.138317 0.00122354 0.0850218)
(-0.168215 -0.00121394 0.0450057)
(-0.184511 -0.00324731 -0.0131549)
(-0.183425 -0.00403927 -0.0852524)
(-0.157669 -0.00311824 -0.156168)
(-0.101595 -0.0012407 -0.184923)
(-0.0295835 -7.21314e-05 -0.104797)
(-0.0106331 0.00831462 0.0543138)
(-0.0448527 0.0115055 0.0997741)
(-0.0903931 0.00903577 0.105845)
(-0.129625 0.00365063 0.0876357)
(-0.15958 -0.00273255 0.0500686)
(-0.177387 -0.00814703 -0.00582281)
(-0.178368 -0.0104324 -0.0763034)
(-0.154389 -0.00816246 -0.146423)
(-0.0995303 -0.00318741 -0.176086)
(-0.0289814 -0.000151298 -0.100718)
(-0.00883949 0.0109819 0.0532183)
(-0.0371442 0.0148814 0.0969947)
(-0.0754068 0.0119499 0.104287)
(-0.110018 0.00554461 0.0900338)
(-0.138734 -0.00208986 0.0583027)
(-0.158471 -0.00869501 0.00889471)
(-0.163401 -0.0117695 -0.0558143)
(-0.144032 -0.00931283 -0.1223)
(-0.0934426 -0.00335819 -0.153526)
(-0.0273355 -9.80808e-05 -0.0902194)
(-0.00596204 0.00910653 0.047728)
(-0.0249816 0.0118139 0.0846994)
(-0.0512604 0.00973227 0.0920448)
(-0.0766638 0.00529307 0.0834376)
(-0.100241 6.48678e-05 0.0619222)
(-0.119491 -0.0044217 0.0261132)
(-0.128421 -0.00646266 -0.0238053)
(-0.117056 -0.00464239 -0.0785219)
(-0.0772574 -0.000733621 -0.109361)
(-0.0229829 -3.83001e-05 -0.0688771)
(-0.00208206 0.00340737 0.0287495)
(-0.00887381 0.00421305 0.0468208)
(-0.0185241 0.0035267 0.0506668)
(-0.0287299 0.00213775 0.0483375)
(-0.0399708 0.000560728 0.0411035)
(-0.0513264 -0.000699229 0.0274637)
(-0.0592176 -0.0010762 0.00596348)
(-0.0570912 -0.000230551 -0.0208198)
(-0.0387911 0.00082849 -0.0408636)
(-0.0119637 -2.32372e-05 -0.0312969)
(-0.00344199 -0.00391018 0.0416016)
(-0.0112113 -0.00446582 0.0636646)
(-0.0198742 -0.00292975 0.0661882)
(-0.029022 -0.000238001 0.0614435)
(-0.0410364 0.00297648 0.051436)
(-0.0565477 0.00591939 0.0337297)
(-0.072046 0.00740811 0.00479241)
(-0.077956 0.0060435 -0.0349811)
(-0.0622967 0.00241861 -0.0706114)
(-0.0227595 -0.000326274 -0.0633804)
(-0.0080481 -0.0101935 0.0682061)
(-0.0289169 -0.0122384 0.115086)
(-0.0544287 -0.00777566 0.121638)
(-0.0782756 0.000348304 0.108891)
(-0.102311 0.0100033 0.081458)
(-0.126321 0.018675 0.0364766)
(-0.144634 0.0228771 -0.0291888)
(-0.143914 0.018894 -0.109355)
(-0.110088 0.00805149 -0.169349)
(-0.0386941 -0.000793118 -0.129556)
(-0.0110284 -0.0120015 0.07625)
(-0.041421 -0.0150778 0.132445)
(-0.0788987 -0.00910558 0.139471)
(-0.111087 0.00193492 0.120732)
(-0.138657 0.014757 0.0824331)
(-0.161182 0.0255944 0.0229152)
(-0.17395 0.0298216 -0.0594125)
(-0.165287 0.0237078 -0.155412)
(-0.124169 0.0100143 -0.222272)
(-0.0434587 -0.000455614 -0.161898)
(-0.0127665 -0.00893995 0.0783685)
(-0.0489969 -0.0114684 0.13715)
(-0.0933734 -0.00663366 0.143173)
(-0.129112 0.00227498 0.120624)
(-0.156303 0.0123904 0.0769759)
(-0.175193 0.020448 0.0117608)
(-0.183027 0.0228226 -0.0760017)
(-0.170361 0.0173652 -0.1769)
(-0.12802 0.0070849 -0.245667)
(-0.0452304 -0.000152227 -0.176201)
(-0.0135329 -0.0032467 0.0787931)
(-0.0524158 -0.00419659 0.13804)
(-0.0997698 -0.00236835 0.143257)
(-0.136589 0.000982426 0.118943)
(-0.162827 0.00473103 0.0733173)
(-0.179406 0.00760708 0.00651358)
(-0.184941 0.00828755 -0.0824709)
(-0.171167 0.00614248 -0.184681)
(-0.129232 0.00245473 -0.254158)
(-0.045985 -1.84341e-05 -0.181528)
(-0.0135329 0.00324671 0.0787931)
(-0.0524158 0.00419658 0.13804)
(-0.0997698 0.00236834 0.143257)
(-0.136589 -0.000982431 0.118943)
(-0.162827 -0.00473103 0.0733173)
(-0.179406 -0.00760707 0.00651358)
(-0.184941 -0.00828755 -0.0824709)
(-0.171167 -0.00614248 -0.184681)
(-0.129232 -0.00245472 -0.254158)
(-0.045985 1.84372e-05 -0.181528)
(-0.0127665 0.00893995 0.0783685)
(-0.0489969 0.0114684 0.13715)
(-0.0933734 0.00663365 0.143173)
(-0.129112 -0.00227499 0.120624)
(-0.156303 -0.0123904 0.0769759)
(-0.175193 -0.020448 0.0117608)
(-0.183027 -0.0228226 -0.0760017)
(-0.170361 -0.0173652 -0.1769)
(-0.12802 -0.0070849 -0.245667)
(-0.0452304 0.00015223 -0.176201)
(-0.0110284 0.0120015 0.07625)
(-0.041421 0.0150778 0.132445)
(-0.0788986 0.00910557 0.139471)
(-0.111087 -0.00193493 0.120732)
(-0.138657 -0.014757 0.0824331)
(-0.161182 -0.0255944 0.0229152)
(-0.17395 -0.0298216 -0.0594125)
(-0.165287 -0.0237078 -0.155412)
(-0.124169 -0.0100143 -0.222272)
(-0.0434587 0.000455616 -0.161898)
(-0.00804809 0.0101935 0.0682061)
(-0.0289169 0.0122384 0.115086)
(-0.0544287 0.00777566 0.121638)
(-0.0782756 -0.000348305 0.108891)
(-0.102311 -0.0100033 0.081458)
(-0.126321 -0.018675 0.0364766)
(-0.144634 -0.0228771 -0.0291888)
(-0.143914 -0.018894 -0.109355)
(-0.110088 -0.00805149 -0.169349)
(-0.0386941 0.000793119 -0.129556)
(-0.00344199 0.00391018 0.0416016)
(-0.0112113 0.00446582 0.0636646)
(-0.0198742 0.00292975 0.0661882)
(-0.029022 0.000238001 0.0614435)
(-0.0410364 -0.00297648 0.051436)
(-0.0565477 -0.00591939 0.0337297)
(-0.072046 -0.00740811 0.00479241)
(-0.077956 -0.0060435 -0.0349811)
(-0.0622967 -0.00241861 -0.0706114)
(-0.0227595 0.000326275 -0.0633804)
(-0.00718841 -0.00462161 0.0588476)
(-0.0167842 -0.00474531 0.0799857)
(-0.0211211 -0.00203928 0.077614)
(-0.0252277 0.00231794 0.0683931)
(-0.0341855 0.00756032 0.0551599)
(-0.0511325 0.0127721 0.0343356)
(-0.07437 0.0160986 -0.000240825)
(-0.0922237 0.0145287 -0.0532639)
(-0.0874721 0.00728597 -0.10961)
(-0.0361237 -0.00132673 -0.116711)
(-0.012965 -0.0114467 0.0934943)
(-0.035469 -0.01241 0.144432)
(-0.0540229 -0.00502452 0.145841)
(-0.068262 0.00715301 0.127418)
(-0.0840663 0.0214765 0.0955611)
(-0.104962 0.034785 0.0459346)
(-0.128528 0.0418718 -0.0289862)
(-0.140905 0.0358213 -0.13222)
(-0.127186 0.0160674 -0.23118)
(-0.0499825 -0.00420519 -0.219816)
(-0.0157253 -0.0129049 0.103329)
(-0.0465982 -0.0148353 0.166164)
(-0.0753749 -0.00561009 0.169221)
(-0.0952186 0.00978466 0.145936)
(-0.110987 0.0271547 0.104631)
(-0.126364 0.0417172 0.0419969)
(-0.14094 0.0471489 -0.048599)
(-0.144283 0.0373125 -0.169809)
(-0.128938 0.0147724 -0.28361)
(-0.0509672 -0.0040154 -0.261767)
(-0.017102 -0.00937117 0.105888)
(-0.052766 -0.0110578 0.17227)
(-0.0870371 -0.00391688 0.175125)
(-0.108674 0.00796232 0.149186)
(-0.122119 0.020923 0.104092)
(-0.131953 0.030912 0.0373651)
(-0.140354 0.0332878 -0.0575037)
(-0.139984 0.0247681 -0.184424)
(-0.12714 0.00896304 -0.30399)
(-0.0514692 -0.0024959 -0.278748)
(-0.0176496 -0.00336104 0.106448)
(-0.0553734 -0.00400517 0.173595)
(-0.091837 -0.00136445 0.175991)
(-0.113702 0.00300426 0.148883)
(-0.125409 0.00767575 0.102626)
(-0.132349 0.0110986 0.0350929)
(-0.138323 0.0116318 -0.0605472)
(-0.1374 0.00836246 -0.189292)
(-0.126668 0.00288975 -0.311193)
(-0.0520105 -0.000800083 -0.285013)
(-0.0176496 0.00336104 0.106448)
(-0.0553734 0.00400517 0.173595)
(-0.091837 0.00136444 0.175991)
(-0.113702 -0.00300427 0.148883)
(-0.125409 -0.00767575 0.102626)
(-0.132349 -0.0110986 0.0350929)
(-0.138323 -0.0116318 -0.0605472)
(-0.1374 -0.00836245 -0.189292)
(-0.126668 -0.00288974 -0.311193)
(-0.0520105 0.000800087 -0.285013)
(-0.017102 0.00937117 0.105888)
(-0.052766 0.0110578 0.17227)
(-0.0870371 0.00391688 0.175125)
(-0.108674 -0.00796232 0.149186)
(-0.122119 -0.020923 0.104092)
(-0.131953 -0.030912 0.0373651)
(-0.140354 -0.0332878 -0.0575037)
(-0.139984 -0.0247681 -0.184424)
(-0.12714 -0.00896303 -0.30399)
(-0.0514692 0.00249591 -0.278748)
(-0.0157253 0.0129049 0.103329)
(-0.0465982 0.0148353 0.166164)
(-0.0753748 0.00561009 0.169221)
(-0.0952186 -0.00978466 0.145936)
(-0.110987 -0.0271547 0.104631)
(-0.126364 -0.0417172 0.0419969)
(-0.14094 -0.0471489 -0.048599)
(-0.144283 -0.0373125 -0.169809)
(-0.128938 -0.0147724 -0.28361)
(-0.0509672 0.0040154 -0.261767)
(-0.012965 0.0114467 0.0934943)
(-0.035469 0.01241 0.144432)
(-0.0540229 0.00502452 0.145841)
(-0.068262 -0.00715301 0.127418)
(-0.0840664 -0.0214765 0.0955611)
(-0.104962 -0.034785 0.0459346)
(-0.128528 -0.0418717 -0.0289862)
(-0.140905 -0.0358213 -0.13222)
(-0.127186 -0.0160674 -0.23118)
(-0.0499825 0.00420519 -0.219816)
(-0.00718841 0.00462161 0.0588476)
(-0.0167842 0.00474531 0.0799857)
(-0.0211211 0.00203928 0.077614)
(-0.0252277 -0.00231793 0.0683931)
(-0.0341855 -0.00756032 0.0551599)
(-0.0511325 -0.0127721 0.0343356)
(-0.07437 -0.0160986 -0.000240823)
(-0.0922237 -0.0145287 -0.0532639)
(-0.0874721 -0.00728597 -0.10961)
(-0.0361237 0.00132673 -0.116711)
(-0.016593 -0.00633871 0.0817362)
(-0.0286829 -0.00641685 0.0922177)
(-0.0188188 -0.0026576 0.080456)
(-0.00962509 0.00323559 0.0644624)
(-0.00795938 0.0101946 0.0479128)
(-0.0192192 0.0175164 0.0260946)
(-0.0457488 0.0231906 -0.0103347)
(-0.0762528 0.0219089 -0.0728958)
(-0.0964289 0.0103807 -0.15219)
(-0.0418165 -0.00598664 -0.195468)
(-0.0258378 -0.0144555 0.122181)
(-0.050829 -0.0151906 0.165975)
(-0.0468744 -0.00579533 0.156945)
(-0.0359456 0.00901478 0.13046)
(-0.0282039 0.0261271 0.0962544)
(-0.0304491 0.0427667 0.0492021)
(-0.047559 0.0536749 -0.0226351)
(-0.0688885 0.0476707 -0.135924)
(-0.0953391 0.0193427 -0.273609)
(-0.0359591 -0.0141277 -0.325952)
(-0.0287458 -0.0151525 0.131885)
(-0.0606197 -0.0169869 0.190436)
(-0.0635409 -0.00619818 0.184943)
(-0.0535679 0.0108512 0.155454)
(-0.0409062 0.0298004 0.114406)
(-0.0323083 0.046292 0.0575407)
(-0.035745 0.0542116 -0.0262377)
(-0.0449874 0.0438269 -0.156028)
(-0.0754122 0.014347 -0.314254)
(-0.0276851 -0.012221 -0.367308)
(-0.0297611 -0.0105071 0.133991)
(-0.0649616 -0.0121383 0.197113)
(-0.0713979 -0.00418843 0.192753)
(-0.0614275 0.00825138 0.16227)
(-0.045327 0.0216197 0.119199)
(-0.0302312 0.0323253 0.0597229)
(-0.0267232 0.036032 -0.0271538)
(-0.0317171 0.0272201 -0.162431)
(-0.0672465 0.00784538 -0.328572)
(-0.025959 -0.00717881 -0.382603)
(-0.0300578 -0.00368331 0.134355)
(-0.0664989 -0.00430614 0.198499)
(-0.0741484 -0.00143315 0.194242)
(-0.0638103 0.00302373 0.163383)
(-0.0459479 0.00770942 0.119893)
(-0.0281166 0.0112829 0.0600555)
(-0.0223502 0.0122438 -0.0274327)
(-0.0269087 0.00892844 -0.164651)
(-0.0654969 0.00243088 -0.333811)
(-0.0261824 -0.00224601 -0.388251)
(-0.0300578 0.00368331 0.134355)
(-0.0664989 0.00430613 0.198499)
(-0.0741484 0.00143314 0.194242)
(-0.0638103 -0.00302374 0.163383)
(-0.0459479 -0.00770942 0.119893)
(-0.0281166 -0.0112829 0.0600555)
(-0.0223502 -0.0122438 -0.0274327)
(-0.0269087 -0.00892844 -0.164651)
(-0.0654969 -0.00243088 -0.333811)
(-0.0261824 0.00224602 -0.388251)
(-0.0297611 0.0105071 0.133991)
(-0.0649616 0.0121383 0.197113)
(-0.0713979 0.00418843 0.192753)
(-0.0614275 -0.00825138 0.16227)
(-0.045327 -0.0216197 0.119199)
(-0.0302312 -0.0323253 0.0597229)
(-0.0267232 -0.036032 -0.0271538)
(-0.0317172 -0.0272201 -0.162431)
(-0.0672465 -0.00784538 -0.328572)
(-0.025959 0.00717881 -0.382603)
(-0.0287458 0.0151525 0.131885)
(-0.0606197 0.0169869 0.190436)
(-0.0635409 0.00619818 0.184943)
(-0.0535679 -0.0108512 0.155454)
(-0.0409062 -0.0298004 0.114406)
(-0.0323083 -0.046292 0.0575407)
(-0.035745 -0.0542116 -0.0262377)
(-0.0449874 -0.0438269 -0.156028)
(-0.0754122 -0.014347 -0.314254)
(-0.0276851 0.012221 -0.367308)
(-0.0258378 0.0144555 0.122181)
(-0.050829 0.0151906 0.165975)
(-0.0468744 0.00579532 0.156945)
(-0.0359456 -0.00901479 0.13046)
(-0.0282039 -0.0261271 0.0962544)
(-0.0304491 -0.0427667 0.0492021)
(-0.047559 -0.0536749 -0.0226351)
(-0.0688885 -0.0476707 -0.135924)
(-0.0953391 -0.0193427 -0.273609)
(-0.0359591 0.0141277 -0.325952)
(-0.016593 0.00633871 0.0817362)
(-0.0286829 0.00641685 0.0922177)
(-0.0188188 0.0026576 0.080456)
(-0.00962509 -0.00323559 0.0644624)
(-0.00795938 -0.0101946 0.0479128)
(-0.0192192 -0.0175164 0.0260946)
(-0.0457488 -0.0231906 -0.0103347)
(-0.0762528 -0.0219089 -0.0728958)
(-0.0964289 -0.0103807 -0.15219)
(-0.0418165 0.00598664 -0.195468)
(-0.0238654 -0.011219 0.15032)
(-0.0205451 -0.0119727 0.0981712)
(0.0274813 -0.00740914 0.0628804)
(0.0615985 -0.000893541 0.0416035)
(0.0824306 0.00647463 0.025273)
(0.0848739 0.014376 0.00753304)
(0.0628108 0.0216657 -0.0209999)
(0.0254252 0.0209536 -0.0785045)
(-0.0421618 0.00529581 -0.173722)
(-0.0068324 -0.0177625 -0.259526)
(-0.0426337 -0.022978 0.209733)
(-0.0422589 -0.0259722 0.169341)
(0.0219962 -0.0167211 0.127585)
(0.0775793 -0.00262182 0.0956457)
(0.122245 0.0136341 0.0663008)
(0.150379 0.0302825 0.0327191)
(0.148835 0.0447584 -0.0166144)
(0.129987 0.0429962 -0.107054)
(0.0395105 0.0104921 -0.256062)
(0.0435332 -0.0316756 -0.36934)
(-0.0479627 -0.0208374 0.219877)
(-0.0520002 -0.0258288 0.189558)
(0.011222 -0.0172852 0.150837)
(0.0713526 -0.00315461 0.117736)
(0.12489 0.0132083 0.0846585)
(0.166942 0.0288944 0.0452146)
(0.17962 0.0404248 -0.0111212)
(0.175229 0.035949 -0.110299)
(0.0800583 0.0063065 -0.275041)
(0.0629012 -0.0224113 -0.395027)
(-0.0489891 -0.0133118 0.220858)
(-0.0548211 -0.0171987 0.193635)
(0.00706199 -0.0114924 0.156561)
(0.0682981 -0.00197043 0.123799)
(0.124816 0.00884059 0.0901072)
(0.172048 0.0187635 0.0491243)
(0.189627 0.025149 -0.0095083)
(0.189417 0.0212557 -0.111641)
(0.0900134 0.00374191 -0.281771)
(0.0659389 -0.0116995 -0.403746)
(-0.0490294 -0.00448709 0.220639)
(-0.0552505 -0.00589546 0.193976)
(0.00630992 -0.00390982 0.157317)
(0.0680351 -0.00061959 0.124743)
(0.125553 0.00305478 0.0910909)
(0.174331 0.00633928 0.0499196)
(0.193039 0.0082996 -0.00933815)
(0.193106 0.00686397 -0.112626)
(0.0910986 0.00126819 -0.284578)
(0.0655538 -0.00346412 -0.406924)
(-0.0490294 0.00448709 0.220639)
(-0.0552505 0.00589546 0.193976)
(0.00630992 0.00390982 0.157317)
(0.0680351 0.000619585 0.124743)
(0.125553 -0.00305478 0.0910909)
(0.174331 -0.00633928 0.0499196)