/*--------------------------------*- C++ -*----------------------------------*\
  =========                 |
  \\      /  F ield         | OpenFOAM: The Open Source CFD Toolbox
   \\    /   O peration     | Website:  https://openfoam.org
    \\  /    A nd           | Version:  9
     \\/     M anipulation  |
\*---------------------------------------------------------------------------*/
FoamFile
{
    format      ascii;
    class       volScalarField;
    location    "0.5";
    object      p;
}
// * * * * * * * * * * * * * * * * * * * * * * * * * * * * * * * * * * * * * //

dimensions      [0 2 -2 0 0 0 0];

internalField   nonuniform List<scalar> 
1000
(
-1.4084e-06
-0.000449983
-6.39334e-05
0.00108309
0.00303389
0.00564844
0.00847869
0.0107897
0.0118898
0.0110726
0.000170039
-0.000660357
-0.000372923
0.000815123
0.00293232
0.00582379
0.00897506
0.011497
0.0125472
0.0112027
0.000864128
-0.000214855
3.79538e-05
0.00131618
0.00365786
0.00688895
0.0104001
0.0130745
0.0139115
0.0118712
0.00159743
0.000359024
0.000599335
0.00196509
0.00450764
0.00804365
0.0118097
0.0145559
0.0151728
0.0125882
0.00205212
0.000740731
0.000979635
0.00239613
0.00504803
0.00874049
0.0126456
0.0154157
0.015902
0.0130325
0.00205202
0.000740653
0.000979564
0.00239608
0.00504798
0.00874044
0.0126456
0.0154157
0.015902
0.0130325
0.00159711
0.000358772
0.000599124
0.00196492
0.00450749
0.00804352
0.0118095
0.0145558
0.0151727
0.0125881
0.000863474
-0.000215348
3.75757e-05
0.0013159
0.00365763
0.00688876
0.0103999
0.0130744
0.0139113
0.0118711
0.000168758
-0.000661173
-0.000373475
0.000814752
0.00293204
0.00582358
0.00897488
0.0114969
0.0125471
0.0112026
-4.21155e-06
-0.000451224
-6.46511e-05
0.00108263
0.00303357
0.0056482
0.00847848
0.0107895
0.0118896
0.0110724
0.000353734
-5.96236e-05
0.000348218
0.00138544
0.00311597
0.0054684
0.00808131
0.0103132
0.0114336
0.010353
0.000877075
1.78255e-05
0.00034991
0.00137454
0.00313214
0.00556676
0.00831485
0.0106635
0.0117448
0.0100197
0.0019719
0.000749478
0.0010257
0.00205353
0.00387809
0.00644724
0.00942106
0.01185
0.0127445
0.0103021
0.00297951
0.00149408
0.00172278
0.00275696
0.00465426
0.00738258
0.0105165
0.0129827
0.0136924
0.0107305
0.00356874
0.00194822
0.00215091
0.00318902
0.00512782
0.00794957
0.0111673
0.013643
0.0142449
0.0110279
0.00356866
0.00194816
0.00215085
0.00318897
0.00512777
0.00794953
0.0111673
0.013643
0.0142449
0.0110279
0.00297925
0.00149386
0.00172259
0.0027568
0.00465413
0.00738246
0.0105164
0.0129826
0.0136923
0.0107304
0.00197139
0.000749087
0.00102539
0.00205329
0.00387788
0.00644707
0.0094209
0.0118499
0.0127444
0.010302
0.000876234
1.72043e-05
0.000349456
0.00137422
0.00313189
0.00556656
0.00831467
0.0106633
0.0117447
0.0100195
0.00035247
-6.04661e-05
0.000347657
0.00138505
0.00311569
0.00546818
0.0080811
0.010313
0.0114334
0.0103528
-0.000953345
-0.00149963
-0.00118288
-0.000302955
0.00129224
0.00369
0.00666613
0.0095608
0.0113159
0.0100534
-0.000122529
-0.00127177
-0.00103553
-0.000167055
0.0014555
0.00395843
0.00711704
0.0101765
0.0118648
0.00948419
0.00145375
-0.000219807
-8.62018e-05
0.00071315
0.00232672
0.00494233
0.00829769
0.0114789
0.0129757
0.00958016
0.00284423
0.000791287
0.000829404
0.00156312
0.00317288
0.00588187
0.00937917
0.0126123
0.0139184
0.00984529
0.00363763
0.00138949
0.00137256
0.00206822
0.00367739
0.00643692
0.00999989
0.0132424
0.0144375
0.0100507
0.00363756
0.00138943
0.00137251
0.00206818
0.00367735
0.00643687
0.00999985
0.0132424
0.0144374
0.0100506
0.00284403
0.000791116
0.000829244
0.00156298
0.00317275
0.00588175
0.00937905
0.0126122
0.0139183
0.00984515
0.00145339
-0.000220103
-8.64623e-05
0.000712938
0.00232653
0.00494216
0.00829753
0.0114787
0.0129755
0.00958
-0.000123057
-0.00127221
-0.00103589
-0.000167336
0.00145527
0.00395822
0.00711685
0.0101763
0.0118646
0.00948401
-0.000954028
-0.00150018
-0.0011833
-0.000303271
0.001292
0.00368978
0.00666593
0.00956062
0.0113157
0.0100533
-0.00429801
-0.00496803
-0.00478747
-0.00413583
-0.0027054
-0.000118332
0.0036857
0.00810779
0.0115083
0.010629
-0.00314666
-0.00457456
-0.00447986
-0.0038255
-0.00233928
0.000407298
0.00449396
0.00924462
0.0125832
0.0100099
-0.00105733
-0.00317759
-0.00327448
-0.00282191
-0.00149377
0.00126792
0.00551191
0.0105065
0.0137635
0.0100226
0.000752015
-0.00186905
-0.00214727
-0.00189045
-0.000717358
0.00199442
0.00634646
0.0114613
0.0146081
0.0101686
0.00177155
-0.00110653
-0.00148983
-0.0013464
-0.000259457
0.002425
0.00680721
0.0119513
0.0150275
0.0102916
0.0017715
-0.00110658
-0.00148988
-0.00134644
-0.000259491
0.00242497
0.00680718
0.0119513
0.0150275
0.0102916
0.000751854
-0.00186919
-0.00214741
-0.00189057
-0.000717464
0.00199432
0.00634637
0.0114612
0.014608
0.0101685
-0.0010576
-0.00317783
-0.00327469
-0.00282209
-0.00149393
0.00126778
0.00551179
0.0105064
0.0137634
0.0100225
-0.00314702
-0.00457489
-0.00448016
-0.00382574
-0.00233948
0.000407119
0.0044938
0.00924447
0.012583
0.0100097
-0.00429846
-0.00496845
-0.00478782
-0.00413611
-0.00270563
-0.000118526
0.00368554
0.00810763
0.0115081
0.0106288
-0.0103722
-0.0110066
-0.0109037
-0.010522
-0.00934692
-0.00653319
-0.00142772
0.00569871
0.0124157
0.0135882
-0.00892031
-0.0104578
-0.0104662
-0.0101044
-0.00889319
-0.00595322
-0.000540609
0.00714211
0.0140056
0.0133403
-0.00638681
-0.00878482
-0.00914847
-0.00924521
-0.00852005
-0.0058918
-0.000490077
0.00761349
0.0147745
0.0133933
-0.00422886
-0.00724449
-0.0079332
-0.00844887
-0.00814663
-0.00579144
-0.000467837
0.0078471
0.0151696
0.0134717
-0.00302697
-0.00635719
-0.00723028
-0.00797934
-0.00790338
-0.00569555
-0.000438399
0.00793862
0.0153162
0.013521
-0.00302701
-0.00635723
-0.00723032
-0.00797937
-0.00790341
-0.00569558
-0.000438418
0.00793859
0.0153162
0.013521
-0.004229
-0.00724461
-0.00793332
-0.00844896
-0.00814671
-0.0057915
-0.000467894
0.00784703
0.0151696
0.0134717
-0.00638703
-0.00878502
-0.00914865
-0.00924536
-0.00852017
-0.00589189
-0.000490156
0.00761342
0.0147744
0.0133933
-0.0089206
-0.0104581
-0.0104665
-0.0101046
-0.00889335
-0.00595334
-0.000540707
0.00714202
0.0140055
0.0133402
-0.0103726
-0.0110069
-0.010904
-0.0105222
-0.00934708
-0.00653332
-0.00142782
0.00569862
0.0124156
0.0135881
-0.0198706
-0.0199523
-0.0195953
-0.0193729
-0.0184839
-0.0154758
-0.00867919
0.00249869
0.0151784
0.021773
-0.0181283
-0.0192945
-0.0191429
-0.0190706
-0.0183919
-0.0156494
-0.00899754
0.00271741
0.0160426
0.0221379
-0.0152511
-0.0174474
-0.0179071
-0.0187077
-0.0190469
-0.0172416
-0.0110888
0.00113582
0.0155138
0.0221994
-0.0128563
-0.0157705
-0.0167507
-0.0182759
-0.0194244
-0.0183238
-0.0125424
-6.66795e-05
0.0149325
0.0221533
-0.0115431
-0.0148163
-0.0160811
-0.0179877
-0.0195412
-0.0187863
-0.0131976
-0.000647538
0.0146079
0.0220986
-0.0115431
-0.0148163
-0.0160812
-0.0179877
-0.0195412
-0.0187863
-0.0131976
-0.000647545
0.0146079
0.0220986
-0.0128564
-0.0157706
-0.0167508
-0.018276
-0.0194245
-0.0183238
-0.0125424
-6.66904e-05
0.0149325
0.0221533
-0.0152513
-0.0174476
-0.0179072
-0.0187078
-0.019047
-0.0172416
-0.0110888
0.0011358
0.0155138
0.0221994
-0.0181285
-0.0192947
-0.0191431
-0.0190707
-0.018392
-0.0156495
-0.00899757
0.0027174
0.0160426
0.0221379
-0.0198709
-0.0199526
-0.0195955
-0.019373
-0.018484
-0.0154759
-0.00867924
0.00249866
0.0151784
0.021773
-0.0339655
-0.0317951
-0.030219
-0.0296387
-0.0288929
-0.0257804
-0.0173304
-0.000917444
0.0208428
0.0394731
-0.0317401
-0.0309809
-0.0298645
-0.0298007
-0.029813
-0.027832
-0.020624
-0.00435066
0.0185853
0.0396088
-0.0284959
-0.0289079
-0.0287282
-0.0300516
-0.0317809
-0.0316234
-0.0257527
-0.0091693
0.015593
0.0394686
-0.0259126
-0.0270941
-0.0276301
-0.0299929
-0.0329343
-0.033956
-0.0288728
-0.0120926
0.0137227
0.0393397
-0.0245324
-0.0260872
-0.0269969
-0.0298722
-0.0333763
-0.0349189
-0.0301797
-0.013337
0.0129084
0.0392602
-0.0245324
-0.0260872
-0.0269969
-0.0298722
-0.0333763
-0.0349189
-0.0301797
-0.0133369
0.0129084
0.0392602
-0.0259127
-0.0270942
-0.0276302
-0.029993
-0.0329343
-0.033956
-0.0288728
-0.0120925
0.0137227
0.0393398
-0.028496
-0.0289081
-0.0287283
-0.0300517
-0.031781
-0.0316234
-0.0257527
-0.00916927
0.0155931
0.0394687
-0.0317403
-0.0309811
-0.0298647
-0.0298008
-0.0298131
-0.0278321
-0.020624
-0.00435063
0.0185853
0.0396088
-0.0339657
-0.0317953
-0.0302191
-0.0296388
-0.028893
-0.0257805
-0.0173304
-0.000917414
0.0208428
0.0394731
-0.0565788
-0.0461854
-0.0413158
-0.0391007
-0.0379049
-0.0344662
-0.0247699
-0.00244374
0.0307659
0.0735471
-0.0532073
-0.0447152
-0.0407428
-0.0398057
-0.0401792
-0.0389667
-0.0321866
-0.0114037
0.0230453
0.073977
-0.04902
-0.0418037
-0.0390154
-0.0400383
-0.0427972
-0.0440648
-0.0393914
-0.0185331
0.0182952
0.0753447
-0.0459631
-0.0394974
-0.0375168
-0.0398161
-0.0440988
-0.0467979
-0.0431929
-0.0220206
0.0162663
0.0766379
-0.0444151
-0.0382954
-0.0367184
-0.0396097
-0.0445521
-0.0478328
-0.0446594
-0.0233226
0.0156022
0.077258
-0.0444152
-0.0382954
-0.0367185
-0.0396097
-0.0445521
-0.0478328
-0.0446594
-0.0233226
0.0156023
0.077258
-0.0459632
-0.0394975
-0.0375169
-0.0398161
-0.0440988
-0.0467979
-0.0431929
-0.0220206
0.0162664
0.0766379
-0.0490202
-0.0418039
-0.0390155
-0.0400383
-0.0427972
-0.0440648
-0.0393914
-0.0185331
0.0182952
0.0753448
-0.0532074
-0.0447154
-0.040743
-0.0398058
-0.0401793
-0.0389667
-0.0321866
-0.0114036
0.0230454
0.073977
-0.056579
-0.0461856
-0.041316
-0.0391008
-0.037905
-0.0344662
-0.0247699
-0.0024437
0.0307659
0.0735471
-0.0882832
-0.0606299
-0.0513022
-0.0455069
-0.0426658
-0.038142
-0.0256968
0.00508185
0.0518041
0.150908
-0.0805799
-0.0567903
-0.049936
-0.0465476
-0.0460428
-0.0442559
-0.0355638
-0.005755
0.0453495
0.162457
-0.0741958
-0.0520583
-0.0467645
-0.0458633
-0.0482808
-0.0491886
-0.0426182
-0.0112077
0.04623
0.171385
-0.0702424
-0.0488202
-0.0443999
-0.0450148
-0.0491699
-0.0515981
-0.0458775
-0.0131603
0.0474396
0.176995
-0.0684263
-0.0472658
-0.0432487
-0.044542
-0.0494396
-0.0524897
-0.047065
-0.0138099
0.0481031
0.179421
-0.0684264
-0.0472658
-0.0432488
-0.044542
-0.0494396
-0.0524897
-0.047065
-0.0138098
0.0481031
0.179421
-0.0702425
-0.0488203
-0.0444
-0.0450149
-0.0491699
-0.0515981
-0.0458775
-0.0131603
0.0474397
0.176995
-0.0741959
-0.0520584
-0.0467647
-0.0458634
-0.0482809
-0.0491886
-0.0426182
-0.0112077
0.0462301
0.171385
-0.0805801
-0.0567905
-0.0499362
-0.0465478
-0.0460429
-0.044256
-0.0355638
-0.00575496
0.0453496
0.162457
-0.0882834
-0.06063
-0.0513023
-0.0455071
-0.042666
-0.0381421
-0.0256968
0.00508188
0.0518042
0.150908
-0.198699
-0.0734757
-0.0483896
-0.0397488
-0.0353254
-0.0285861
-0.0118222
0.0331454
0.119119
0.324621
-0.186471
-0.0609112
-0.0407198
-0.0364308
-0.0356098
-0.0321757
-0.0178588
0.0298798
0.129502
0.35913
-0.177669
-0.0521448
-0.0341975
-0.0329398
-0.0352912
-0.0342693
-0.0209778
0.0298241
0.138685
0.379871
-0.172602
-0.0471793
-0.0302189
-0.030663
-0.03487
-0.035209
-0.0222753
0.030171
0.143194
0.38981
-0.170378
-0.0450314
-0.0284727
-0.0296419
-0.0346503
-0.0355869
-0.0228028
0.0303039
0.144892
0.393581
-0.170378
-0.0450314
-0.0284728
-0.0296419
-0.0346503
-0.0355869
-0.0228028
0.0303039
0.144892
0.393581
-0.172602
-0.0471794
-0.030219
-0.0306631
-0.0348701
-0.035209
-0.0222753
0.0301711
0.143194
0.38981
-0.177669
-0.0521449
-0.0341976
-0.0329399
-0.0352913
-0.0342693
-0.0209778
0.0298242
0.138685
0.379871
-0.186471
-0.0609114
-0.04072
-0.036431
-0.0356099
-0.0321757
-0.0178589
0.0298798
0.129502
0.35913
-0.198699
-0.0734759
-0.0483897
-0.0397489
-0.0353255
-0.0285862
-0.0118222
0.0331455
0.119119
0.324621
)
;

boundaryField
{
    top
    {
        type            zeroGradient;
    }
    others
    {
        type            zeroGradient;
    }
}


// ************************************************************************* //
