/*--------------------------------*- C++ -*----------------------------------*\
  =========                 |
  \\      /  F ield         | OpenFOAM: The Open Source CFD Toolbox
   \\    /   O peration     | Website:  https://openfoam.org
    \\  /    A nd           | Version:  9
     \\/     M anipulation  |
\*---------------------------------------------------------------------------*/
FoamFile
{
    format      ascii;
    class       surfaceScalarField;
    location    "0.5";
    object      phi;
}
// * * * * * * * * * * * * * * * * * * * * * * * * * * * * * * * * * * * * * //

dimensions      [0 3 -1 0 0 0 0];

internalField   nonuniform List<scalar> 
2700
(
-6.57827e-08
-9.47024e-08
1.60525e-07
-3.13709e-07
-1.00893e-07
3.4882e-07
-6.33907e-07
-1.00113e-07
4.2031e-07
-9.43417e-07
-1.20108e-07
4.29618e-07
-1.15943e-06
-1.69342e-07
3.85355e-07
-1.18993e-06
-2.42921e-07
2.73419e-07
-9.70666e-07
-3.16142e-07
9.68794e-08
-5.39619e-07
-3.42418e-07
-8.86292e-08
-1.06986e-07
-2.75992e-07
-1.5664e-07
-9.04319e-08
-1.65545e-08
-1.65409e-07
-2.018e-07
2.72506e-07
-6.86724e-07
-2.61509e-07
6.8193e-07
-1.33574e-06
-2.78352e-07
8.27252e-07
-1.93834e-06
-3.1661e-07
7.991e-07
-2.33498e-06
-3.94666e-07
6.21968e-07
-2.36075e-06
-5.02405e-07
2.8525e-07
-1.90801e-06
-5.9785e-07
-1.71027e-07
-1.0659e-06
-6.12141e-07
-5.72388e-07
-2.3778e-07
-4.88768e-07
-6.15344e-07
-1.97397e-07
-1.30816e-07
-2.35471e-07
-2.16886e-07
2.50558e-07
-9.3194e-07
-3.03664e-07
7.38624e-07
-1.78306e-06
-3.31026e-07
9.03789e-07
-2.55735e-06
-3.70093e-07
8.27773e-07
-3.04687e-06
-4.417e-07
5.36554e-07
-3.04371e-06
-5.36777e-07
3.12113e-08
-2.41604e-06
-6.09523e-07
-6.15991e-07
-1.30337e-06
-6.06374e-07
-1.11844e-06
-2.56708e-07
-4.83069e-07
-1.05236e-06
-2.12805e-07
-2.413e-07
-2.78786e-07
-1.36141e-07
1.9804e-07
-1.08422e-06
-1.97037e-07
6.98808e-07
-2.06009e-06
-2.16816e-07
8.61656e-07
-2.93751e-06
-2.40529e-07
7.47861e-07
-3.47737e-06
-2.81282e-07
3.79442e-07
-3.43523e-06
-3.33103e-07
-2.45815e-07
-2.68251e-06
-3.70967e-07
-9.91279e-07
-1.39568e-06
-3.63842e-07
-1.52936e-06
-2.33401e-07
-2.89919e-07
-1.35543e-06
-1.33124e-07
-3.13081e-07
-2.99675e-07
1.81205e-12
1.63533e-07
-1.15748e-06
1.36687e-12
6.60767e-07
-2.19316e-06
1.1005e-12
8.18865e-07
-3.11899e-06
8.24843e-13
6.85297e-07
-3.67935e-06
6.65321e-13
2.79079e-07
-3.61473e-06
4.80216e-13
-3.97726e-07
-2.79558e-06
3.49121e-13
-1.19012e-06
-1.42369e-06
2.67122e-13
-1.73573e-06
-2.12736e-07
2.15393e-13
-1.50088e-06
1.93571e-13
-3.4586e-07
-2.99675e-07
1.36144e-07
1.63532e-07
-1.15748e-06
1.97039e-07
6.60767e-07
-2.19316e-06
2.16818e-07
8.18865e-07
-3.11899e-06
2.4053e-07
6.85297e-07
-3.67935e-06
2.81284e-07
2.79079e-07
-3.61473e-06
3.33104e-07
-3.97726e-07
-2.79558e-06
3.70968e-07
-1.19012e-06
-1.42369e-06
3.63842e-07
-1.73573e-06
-2.12736e-07
2.8992e-07
-1.50088e-06
1.33124e-07
-3.4586e-07
-2.78786e-07
2.1689e-07
1.9804e-07
-1.08422e-06
3.03667e-07
6.98808e-07
-2.06009e-06
3.31028e-07
8.61656e-07
-2.93751e-06
3.70094e-07
7.47861e-07
-3.47737e-06
4.41701e-07
3.79442e-07
-3.43523e-06
5.36777e-07
-2.45815e-07
-2.68251e-06
6.09524e-07
-9.91279e-07
-1.39568e-06
6.06374e-07
-1.52936e-06
-2.33401e-07
4.83069e-07
-1.35543e-06
2.12805e-07
-3.13081e-07
-2.35472e-07
2.01805e-07
2.50557e-07
-9.31942e-07
2.61512e-07
7.38624e-07
-1.78306e-06
2.78354e-07
9.03789e-07
-2.55735e-06
3.16611e-07
8.27773e-07
-3.04687e-06
3.94667e-07
5.36554e-07
-3.04371e-06
5.02406e-07
3.12111e-08
-2.41604e-06
5.97851e-07
-6.15991e-07
-1.30337e-06
6.12142e-07
-1.11844e-06
-2.56708e-07
4.88769e-07
-1.05236e-06
1.97397e-07
-2.413e-07
-1.65412e-07
9.47144e-08
2.72503e-07
-6.86727e-07
1.00897e-07
6.81929e-07
-1.33574e-06
1.00114e-07
8.27252e-07
-1.93834e-06
1.20109e-07
7.99099e-07
-2.33498e-06
1.69343e-07
6.21967e-07
-2.36075e-06
2.42921e-07
2.8525e-07
-1.90801e-06
3.16142e-07
-1.71027e-07
-1.0659e-06
3.42418e-07
-5.72388e-07
-2.3778e-07
2.75992e-07
-6.15343e-07
9.04321e-08
-1.30815e-07
-6.57969e-08
1.60511e-07
-3.13716e-07
3.48816e-07
-6.33911e-07
4.20309e-07
-9.4342e-07
4.29617e-07
-1.15943e-06
3.85354e-07
-1.18993e-06
2.73418e-07
-9.70666e-07
9.68793e-08
-5.39619e-07
-8.86293e-08
-1.06986e-07
-1.5664e-07
-1.65543e-08
-2.2313e-07
-2.49994e-07
6.33649e-07
-7.24694e-07
-3.23912e-07
1.1743e-06
-1.31927e-06
-3.3725e-07
1.35214e-06
-1.87713e-06
-3.49943e-07
1.33742e-06
-2.26263e-06
-3.85079e-07
1.15593e-06
-2.32502e-06
-4.43016e-07
7.78832e-07
-1.95317e-06
-4.98284e-07
2.23308e-07
-1.18144e-06
-4.94793e-07
-3.65562e-07
-3.32132e-07
-3.68097e-07
-6.37853e-07
-7.65068e-08
-2.7218e-07
-5.90323e-07
-4.44654e-07
1.05749e-06
-1.77459e-06
-6.34382e-07
2.17667e-06
-3.12348e-06
-6.75896e-07
2.51479e-06
-4.32401e-06
-7.0151e-07
2.3512e-06
-5.08514e-06
-7.57352e-07
1.75537e-06
-5.12468e-06
-8.40353e-07
7.22124e-07
-4.25831e-06
-9.10702e-07
-6.24974e-07
-2.60086e-06
-8.78686e-07
-1.84595e-06
-8.10206e-07
-6.65303e-07
-2.10879e-06
-2.14508e-07
-8.0302e-07
-8.50492e-07
-4.43952e-07
1.10035e-06
-2.50271e-06
-6.65798e-07
2.42226e-06
-4.34019e-06
-7.18433e-07
2.78381e-06
-5.9238e-06
-7.44885e-07
2.45475e-06
-6.86515e-06
-7.94762e-07
1.51532e-06
-6.82819e-06
-8.65222e-07
1.91119e-08
-5.58612e-06
-9.07989e-07
-1.86077e-06
-3.35306e-06
-8.59385e-07
-3.37081e-06
-1.01878e-06
-6.5811e-07
-3.39383e-06
-2.51313e-07
-1.22327e-06
-1.00987e-06
-2.69544e-07
1.03351e-06
-2.95553e-06
-4.14288e-07
2.39295e-06
-5.09116e-06
-4.4977e-07
2.72862e-06
-6.89406e-06
-4.65513e-07
2.27139e-06
-7.91994e-06
-4.92452e-07
1.10302e-06
-7.79208e-06
-5.28678e-07
-7.10223e-07
-6.29293e-06
-5.4512e-07
-2.8533e-06
-3.70719e-06
-5.10366e-07
-4.46412e-06
-1.08188e-06
-3.93817e-07
-4.24503e-06
-1.62277e-07
-1.484e-06
-1.08437e-06
1.46695e-12
9.78357e-07
-3.17053e-06
8.12006e-13
2.33264e-06
-5.44707e-06
5.65904e-13
2.64563e-06
-7.34901e-06
4.24936e-13
2.12173e-06
-8.40611e-06
3.98972e-13
8.43725e-07
-8.22215e-06
3.31932e-13
-1.11036e-06
-6.5926e-06
2.88556e-13
-3.36479e-06
-3.84147e-06
2.64544e-13
-4.99722e-06
-1.09313e-06
2.73654e-13
-4.64304e-06
3.07262e-13
-1.60127e-06
-1.08437e-06
2.69547e-07
9.78357e-07
-3.17053e-06
4.1429e-07
2.33264e-06
-5.44707e-06
4.49771e-07
2.64563e-06
-7.34901e-06
4.65514e-07
2.12173e-06
-8.40611e-06
4.92453e-07
8.43725e-07
-8.22215e-06
5.28679e-07
-1.11036e-06
-6.5926e-06
5.45121e-07
-3.36479e-06
-3.84147e-06
5.10366e-07
-4.99722e-06
-1.09313e-06
3.93817e-07
-4.64304e-06
1.62277e-07
-1.60127e-06
-1.00987e-06
4.43955e-07
1.03351e-06
-2.95553e-06
6.658e-07
2.39296e-06
-5.09116e-06
7.18434e-07
2.72862e-06
-6.89406e-06
7.44885e-07
2.27139e-06
-7.91994e-06
7.94763e-07
1.10302e-06
-7.79208e-06
8.65222e-07
-7.10223e-07
-6.29293e-06
9.0799e-07
-2.8533e-06
-3.70719e-06
8.59385e-07
-4.46412e-06
-1.08188e-06
6.5811e-07
-4.24503e-06
2.51313e-07
-1.484e-06
-8.50492e-07
4.44657e-07
1.10035e-06
-2.50271e-06
6.34383e-07
2.42226e-06
-4.34019e-06
6.75897e-07
2.78381e-06
-5.9238e-06
7.01511e-07
2.45475e-06
-6.86515e-06
7.57352e-07
1.51532e-06
-6.82819e-06
8.40353e-07
1.91119e-08
-5.58612e-06
9.10703e-07
-1.86077e-06
-3.35306e-06
8.78686e-07
-3.37081e-06
-1.01878e-06
6.65303e-07
-3.39383e-06
2.14508e-07
-1.22327e-06
-5.90324e-07
2.49998e-07
1.05749e-06
-1.77459e-06
3.23913e-07
2.17667e-06
-3.12348e-06
3.3725e-07
2.51479e-06
-4.32401e-06
3.49943e-07
2.3512e-06
-5.08514e-06
3.85079e-07
1.75537e-06
-5.12468e-06
4.43016e-07
7.22124e-07
-4.25831e-06
4.98285e-07
-6.24974e-07
-2.60086e-06
4.94793e-07
-1.84595e-06
-8.10206e-07
3.68097e-07
-2.10879e-06
7.65069e-08
-8.03019e-07
-2.23134e-07
6.33643e-07
-7.24698e-07
1.17429e-06
-1.31927e-06
1.35213e-06
-1.87713e-06
1.33742e-06
-2.26263e-06
1.15593e-06
-2.32502e-06
7.78832e-07
-1.95317e-06
2.23308e-07
-1.18144e-06
-3.65562e-07
-3.32132e-07
-6.37853e-07
-2.7218e-07
-3.3536e-07
-3.86193e-07
1.3552e-06
-1.00894e-06
-5.07574e-07
2.35545e-06
-1.78358e-06
-5.14793e-07
2.64157e-06
-2.52612e-06
-4.91975e-07
2.57194e-06
-3.09275e-06
-4.79243e-07
2.2018e-06
-3.29214e-06
-4.92981e-07
1.4712e-06
-2.92903e-06
-5.19955e-07
3.80146e-07
-1.94059e-06
-5.14399e-07
-8.39602e-07
-6.62656e-07
-3.85186e-07
-1.5306e-06
-3.82425e-08
-8.96593e-07
-9.32843e-07
-6.55041e-07
2.25918e-06
-2.62404e-06
-9.33874e-07
4.29416e-06
-4.48615e-06
-9.57003e-07
4.81911e-06
-6.15079e-06
-9.08642e-07
4.4325e-06
-7.28324e-06
-8.65766e-07
3.27434e-06
-7.52076e-06
-8.52571e-07
1.31923e-06
-6.54229e-06
-8.4985e-07
-1.27354e-06
-4.31495e-06
-8.05841e-07
-3.78185e-06
-1.55293e-06
-6.16562e-07
-4.63944e-06
-1.52183e-07
-2.242e-06
-1.3729e-06
-6.34905e-07
2.45311e-06
-3.79118e-06
-9.44987e-07
4.85166e-06
-6.37853e-06
-9.74121e-07
5.38827e-06
-8.59261e-06
-9.18541e-07
4.67873e-06
-9.98176e-06
-8.57612e-07
2.89631e-06
-1.01095e-05
-8.12123e-07
1.06445e-07
-8.63464e-06
-7.7169e-07
-3.41382e-06
-5.5993e-06
-7.10431e-07
-6.50156e-06
-1.98044e-06
-5.56004e-07
-7.07325e-06
-1.87786e-07
-3.16811e-06
-1.64786e-06
-3.78793e-07
2.42526e-06
-4.52483e-06
-5.76229e-07
4.90116e-06
-7.55013e-06
-5.95455e-07
5.37525e-06
-1.00641e-05
-5.5822e-07
4.42503e-06
-1.15485e-05
-5.133e-07
2.24314e-06
-1.15417e-05
-4.72852e-07
-1.05628e-06
-9.72253e-06
-4.3471e-07
-5.00948e-06
-6.21057e-06
-3.93358e-07
-8.29316e-06
-2.14636e-06
-3.13726e-07
-8.55151e-06
-1.21984e-07
-3.69617e-06
-1.77694e-06
1.20536e-12
2.3765e-06
-4.87235e-06
5.84468e-13
4.85182e-06
-8.10094e-06
2.92204e-13
5.27877e-06
-1.07438e-05
2.2145e-13
4.20637e-06
-1.22527e-05
2.67597e-13
1.83928e-06
-1.2161e-05
2.50403e-13
-1.67491e-06
-1.01701e-05
2.23237e-13
-5.79042e-06
-6.44421e-06
2.19394e-13
-9.11641e-06
-2.19804e-06
2.4478e-13
-9.20293e-06
3.05334e-13
-3.9213e-06
-1.77694e-06
3.78795e-07
2.3765e-06
-4.87235e-06
5.7623e-07
4.85182e-06
-8.10094e-06
5.95455e-07
5.27877e-06
-1.07438e-05
5.5822e-07
4.20637e-06
-1.22527e-05
5.133e-07
1.83928e-06
-1.2161e-05
4.72852e-07
-1.67491e-06
-1.01701e-05
4.3471e-07
-5.79042e-06
-6.44421e-06
3.93359e-07
-9.11641e-06
-2.19804e-06
3.13726e-07
-9.20293e-06
1.21985e-07
-3.9213e-06
-1.64786e-06
6.34907e-07
2.42526e-06
-4.52483e-06
9.44988e-07
4.90116e-06
-7.55012e-06
9.74122e-07
5.37525e-06
-1.00641e-05
9.18541e-07
4.42503e-06
-1.15485e-05
8.57612e-07
2.24314e-06
-1.15417e-05
8.12124e-07
-1.05628e-06
-9.72253e-06
7.71691e-07
-5.00948e-06
-6.21057e-06
7.10432e-07
-8.29316e-06
-2.14636e-06
5.56005e-07
-8.55151e-06
1.87787e-07
-3.69617e-06
-1.3729e-06
6.55043e-07
2.45311e-06
-3.79118e-06
9.33874e-07
4.85166e-06
-6.37853e-06
9.57004e-07
5.38827e-06
-8.59261e-06
9.08642e-07
4.67873e-06
-9.98176e-06
8.65766e-07
2.89631e-06
-1.01095e-05
8.52571e-07
1.06445e-07
-8.63464e-06
8.4985e-07
-3.41382e-06
-5.5993e-06
8.05841e-07
-6.50156e-06
-1.98044e-06
6.16562e-07
-7.07325e-06
1.52184e-07
-3.16811e-06
-9.32844e-07
3.86195e-07
2.25918e-06
-2.62404e-06
5.07574e-07
4.29416e-06
-4.48615e-06
5.14793e-07
4.81911e-06
-6.15079e-06
4.91976e-07
4.4325e-06
-7.28324e-06
4.79244e-07
3.27434e-06
-7.52076e-06
4.92981e-07
1.31923e-06
-6.54229e-06
5.19956e-07
-1.27354e-06
-4.31495e-06
5.14399e-07
-3.78185e-06
-1.55293e-06
3.85186e-07
-4.63944e-06
3.82426e-08
-2.242e-06
-3.35361e-07
1.3552e-06
-1.00894e-06
2.35545e-06
-1.78358e-06
2.64157e-06
-2.52613e-06
2.57194e-06
-3.09275e-06
2.2018e-06
-3.29214e-06
1.4712e-06
-2.92903e-06
3.80146e-07
-1.94059e-06
-8.39602e-07
-6.62656e-07
-1.5306e-06
-8.96593e-07
-4.2531e-07
-5.12809e-07
2.29332e-06
-1.22409e-06
-6.60382e-07
3.8146e-06
-2.13254e-06
-6.28102e-07
4.17813e-06
-3.05334e-06
-5.23805e-07
4.01654e-06
-3.87256e-06
-4.09216e-07
3.43023e-06
-4.36989e-06
-3.30619e-07
2.29915e-06
-4.21605e-06
-3.10014e-07
5.36321e-07
-3.12231e-06
-3.44976e-07
-1.58836e-06
-1.28619e-06
-3.11344e-07
-3.05537e-06
-4.3997e-09
-2.17839e-06
-1.21793e-06
-8.49777e-07
3.81407e-06
-3.31424e-06
-1.17691e-06
6.907e-06
-5.58863e-06
-1.11681e-06
7.58221e-06
-7.68932e-06
-9.00747e-07
6.91013e-06
-9.30586e-06
-6.4478e-07
5.12645e-06
-1.00177e-05
-4.29831e-07
2.13029e-06
-9.29192e-06
-3.13704e-07
-1.99565e-06
-6.71981e-06
-3.3243e-07
-6.3665e-06
-2.79361e-06
-3.46223e-07
-8.53077e-06
-6.26097e-08
-4.9774e-06
-1.81204e-06
-8.09204e-07
4.22457e-06
-4.85396e-06
-1.16398e-06
7.88066e-06
-8.04375e-06
-1.10056e-06
8.5618e-06
-1.08213e-05
-8.62e-07
7.41759e-06
-1.2756e-05
-5.67605e-07
4.75381e-06
-1.33516e-05
-2.97783e-07
5.69928e-07
-1.20781e-05
-1.39147e-07
-4.86182e-06
-8.56068e-06
-1.47169e-07
-1.02043e-05
-3.5043e-06
-2.17824e-07
-1.2258e-05
-8.12899e-08
-6.65374e-06
-2.18464e-06
-4.7715e-07
4.27784e-06
-5.81922e-06
-6.99561e-07
8.07132e-06
-9.54616e-06
-6.59019e-07
8.66066e-06
-1.26616e-05
-5.05283e-07
7.18377e-06
-1.46703e-05
-3.12397e-07
3.99664e-06
-1.50878e-05
-1.31935e-07
-8.04631e-07
-1.34221e-05
-2.24267e-08
-6.79194e-06
-9.38335e-06
-2.872e-08
-1.24503e-05
-3.78922e-06
-9.14533e-08
-1.4272e-05
-5.1429e-08
-7.51525e-06
-2.35859e-06
9.74348e-13
4.25794e-06
-6.2715e-06
4.11409e-13
8.06517e-06
-1.02396e-05
1.38522e-13
8.58789e-06
-1.3487e-05
6.8648e-14
6.94843e-06
-1.54938e-05
1.01893e-13
3.53373e-06
-1.57937e-05
1.27299e-13
-1.50693e-06
-1.39379e-05
1.60766e-13
-7.66871e-06
-9.68328e-06
2.04493e-13
-1.33997e-05
-3.88619e-06
2.47411e-13
-1.50915e-05
2.4609e-13
-7.85891e-06
-2.35859e-06
4.77151e-07
4.25794e-06
-6.2715e-06
6.99562e-07
8.06517e-06
-1.02396e-05
6.5902e-07
8.58789e-06
-1.3487e-05
5.05284e-07
6.94843e-06
-1.54938e-05
3.12397e-07
3.53373e-06
-1.57937e-05
1.31936e-07
-1.50693e-06
-1.39379e-05
2.24271e-08
-7.66871e-06
-9.68328e-06
2.87205e-08
-1.33997e-05
-3.88619e-06
9.14538e-08
-1.50915e-05
5.14295e-08
-7.85891e-06
-2.18464e-06
8.09206e-07
4.27784e-06
-5.81922e-06
1.16398e-06
8.07132e-06
-9.54616e-06
1.10056e-06
8.66066e-06
-1.26616e-05
8.62e-07
7.18377e-06
-1.46703e-05
5.67605e-07
3.99664e-06
-1.50878e-05
2.97784e-07
-8.04631e-07
-1.34221e-05
1.39147e-07
-6.79194e-06
-9.38335e-06
1.4717e-07
-1.24503e-05
-3.78922e-06
2.17824e-07
-1.4272e-05
8.12901e-08
-7.51525e-06
-1.81204e-06
8.49778e-07
4.22457e-06
-4.85396e-06
1.17691e-06
7.88066e-06
-8.04375e-06
1.11681e-06
8.5618e-06
-1.08213e-05
9.00748e-07
7.41759e-06
-1.2756e-05
6.4478e-07
4.75381e-06
-1.33516e-05
4.29831e-07
5.69929e-07
-1.20781e-05
3.13704e-07
-4.86182e-06
-8.56068e-06
3.3243e-07
-1.02043e-05
-3.5043e-06
3.46224e-07
-1.2258e-05
6.261e-08
-6.65374e-06
-1.21793e-06
5.1281e-07
3.81407e-06
-3.31424e-06
6.60382e-07
6.907e-06
-5.58863e-06
6.28103e-07
7.58221e-06
-7.68932e-06
5.23805e-07
6.91013e-06
-9.30586e-06
4.09216e-07
5.12645e-06
-1.00177e-05
3.3062e-07
2.13029e-06
-9.29192e-06
3.10014e-07
-1.99565e-06
-6.71981e-06
3.44976e-07
-6.3665e-06
-2.79361e-06
3.11344e-07
-8.53077e-06
4.39942e-09
-4.9774e-06
-4.25311e-07
2.29332e-06
-1.22409e-06
3.8146e-06
-2.13254e-06
4.17813e-06
-3.05334e-06
4.01654e-06
-3.87256e-06
3.43023e-06
-4.36989e-06
2.29915e-06
-4.21605e-06
5.3632e-07
-3.12231e-06
-1.58836e-06
-1.28619e-06
-3.05537e-06
-2.17839e-06
-5.30014e-07
-6.21588e-07
3.44492e-06
-1.40456e-06
-7.65144e-07
5.45429e-06
-2.37142e-06
-6.42196e-07
5.78718e-06
-3.427e-06
-3.83084e-07
5.45521e-06
-4.54642e-06
-6.97715e-08
4.61943e-06
-5.52281e-06
1.98726e-07
3.07682e-06
-5.86452e-06
3.12739e-07
5.6529e-07
-4.90312e-06
1.90967e-07
-2.74073e-06
-2.42887e-06
-2.7416e-08
-5.50221e-06
1.97091e-09
-4.60923e-06
-1.48445e-06
-1.00984e-06
5.68678e-06
-3.86153e-06
-1.33178e-06
9.85071e-06
-6.38167e-06
-1.09807e-06
1.05582e-05
-8.80456e-06
-5.82956e-07
9.53289e-06
-1.09352e-05
4.11316e-08
7.14624e-06
-1.23659e-05
5.94398e-07
3.16525e-06
-1.23385e-05
8.65852e-07
-2.57618e-06
-9.88073e-06
6.72788e-07
-9.30605e-06
-4.79467e-06
1.93331e-07
-1.38376e-05
-1.51735e-10
-9.76995e-06
-2.18626e-06
-9.46855e-07
6.34785e-06
-5.65558e-06
-1.29273e-06
1.13109e-05
-9.198e-06
-1.04799e-06
1.20541e-05
-1.23392e-05
-5.00148e-07
1.0476e-05
-1.47721e-05
1.6527e-07
7.06254e-06
-1.60454e-05
7.53025e-07
1.6846e-06
-1.54542e-05
1.03691e-06
-5.62402e-06
-1.2068e-05
8.3067e-07
-1.37484e-05
-5.77785e-06
3.09798e-07
-1.86646e-05
5.09646e-09
-1.24368e-05
-2.61815e-06
-5.52456e-07
6.50159e-06
-6.75583e-06
-7.67168e-07
1.16834e-05
-1.08667e-05
-6.13949e-07
1.23375e-05
-1.43115e-05
-2.70153e-07
1.03986e-05
-1.67384e-05
1.46098e-07
6.44278e-06
-1.77363e-05
5.08959e-07
4.37346e-07
-1.67407e-05
6.75388e-07
-7.42609e-06
-1.29083e-05
5.38052e-07
-1.59901e-05
-6.14586e-06
2.12292e-07
-2.0937e-05
6.95337e-09
-1.3663e-05
-2.81565e-06
7.57977e-13
6.52113e-06
-7.25884e-06
3.05189e-13
1.17412e-05
-1.16111e-05
5.20915e-14
1.23262e-05
-1.51516e-05
7.20623e-16
1.02189e-05
-1.75204e-05
6.47257e-14
6.0486e-06
-1.83483e-05
1.29628e-13
-1.7005e-07
-1.71704e-05
2.0052e-13
-8.17123e-06
-1.31842e-05
2.83146e-13
-1.68479e-05
-6.27339e-06
2.79877e-13
-2.179e-05
2.15948e-13
-1.41254e-05
-2.81565e-06
5.52457e-07
6.52113e-06
-7.25884e-06
7.67168e-07
1.17412e-05
-1.16111e-05
6.13949e-07
1.23262e-05
-1.51516e-05
2.70154e-07
1.02189e-05
-1.75204e-05
-1.46098e-07
6.0486e-06
-1.83483e-05
-5.08959e-07
-1.7005e-07
-1.71704e-05
-6.75387e-07
-8.17123e-06
-1.31842e-05
-5.38051e-07
-1.68479e-05
-6.27339e-06
-2.12291e-07
-2.179e-05
-6.95296e-09
-1.41254e-05
-2.61815e-06
9.46856e-07
6.50159e-06
-6.75583e-06
1.29273e-06
1.16834e-05
-1.08667e-05
1.04799e-06
1.23375e-05
-1.43115e-05
5.00148e-07
1.03986e-05
-1.67384e-05
-1.6527e-07
6.44278e-06
-1.77363e-05
-7.53025e-07
4.37346e-07
-1.67407e-05
-1.03691e-06
-7.42609e-06
-1.29083e-05
-8.30669e-07
-1.59901e-05
-6.14586e-06
-3.09797e-07
-2.0937e-05
-5.09613e-09
-1.3663e-05
-2.18626e-06
1.00984e-06
6.34785e-06
-5.65558e-06
1.33178e-06
1.13109e-05
-9.198e-06
1.09807e-06
1.20541e-05
-1.23392e-05
5.82956e-07
1.0476e-05
-1.47721e-05
-4.11313e-08
7.06254e-06
-1.60454e-05
-5.94398e-07
1.6846e-06
-1.54542e-05
-8.65852e-07
-5.62402e-06
-1.2068e-05
-6.72788e-07
-1.37484e-05
-5.77785e-06
-1.9333e-07
-1.86646e-05
1.52142e-10
-1.24368e-05
-1.48445e-06
6.21589e-07
5.68678e-06
-3.86153e-06
7.65144e-07
9.85071e-06
-6.38167e-06
6.42196e-07
1.05582e-05
-8.80456e-06
3.83084e-07
9.53289e-06
-1.09352e-05
6.97716e-08
7.14624e-06
-1.23659e-05
-1.98726e-07
3.16525e-06
-1.23385e-05
-3.12739e-07
-2.57618e-06
-9.88073e-06
-1.90966e-07
-9.30605e-06
-4.79467e-06
2.74161e-08
-1.38376e-05
-1.97113e-09
-9.76995e-06
-5.30014e-07
3.44492e-06
-1.40456e-06
5.45429e-06
-2.37142e-06
5.78718e-06
-3.427e-06
5.45521e-06
-4.54642e-06
4.61942e-06
-5.52281e-06
3.07682e-06
-5.86452e-06
5.6529e-07
-4.90312e-06
-2.74073e-06
-2.42887e-06
-5.50221e-06
-4.60923e-06
-7.33916e-07
-7.12579e-07
4.89142e-06
-1.60629e-06
-8.09485e-07
7.13615e-06
-2.46532e-06
-5.30616e-07
7.17683e-06
-3.49925e-06
-2.53351e-08
6.51447e-06
-4.84975e-06
5.83433e-07
5.38649e-06
-6.40951e-06
1.14792e-06
3.48866e-06
-7.57201e-06
1.4352e-06
2.92595e-07
-7.18725e-06
1.17556e-06
-4.30105e-06
-4.25425e-06
4.7657e-07
-8.91178e-06
-6.47511e-08
-8.79873e-06
-1.80907e-06
-1.12836e-06
7.91162e-06
-4.26337e-06
-1.38193e-06
1.28775e-05
-6.66988e-06
-8.77821e-07
1.33119e-05
-9.0333e-06
6.01213e-08
1.18109e-05
-1.14028e-05
1.18202e-06
8.91718e-06
-1.35177e-05
2.17996e-06
4.24809e-06
-1.45464e-05
2.63663e-06
-2.74897e-06
-1.29545e-05
2.15557e-06
-1.18779e-05
-7.38177e-06
9.27e-07
-1.98608e-05
-5.94276e-08
-1.7157e-05
-2.53981e-06
-1.03857e-06
8.79787e-06
-6.11272e-06
-1.31868e-06
1.48206e-05
-9.50407e-06
-8.10579e-07
1.53782e-05
-1.24698e-05
1.43458e-07
1.33583e-05
-1.49573e-05
1.26114e-06
9.47091e-06
-1.67282e-05
2.21116e-06
3.42435e-06
-1.71251e-05
2.57156e-06
-5.16204e-06
-1.47776e-05
2.03195e-06
-1.59723e-05
-8.33267e-06
8.58634e-07
-2.50411e-05
-2.87102e-08
-2.08002e-05
-2.96791e-06
-5.98656e-07
9.02959e-06
-7.19511e-06
-7.73213e-07
1.53652e-05
-1.10897e-05
-4.63238e-07
1.58847e-05
-1.42303e-05
1.18509e-07
1.35641e-05
-1.65421e-05
7.89346e-07
9.22629e-06
-1.78996e-05
1.33837e-06
2.66767e-06
-1.78704e-05
1.51067e-06
-6.39438e-06
-1.52544e-05
1.15759e-06
-1.77317e-05
-8.63363e-06
4.77176e-07
-2.71763e-05
-7.40902e-09
-2.23179e-05
-3.15568e-06
5.43561e-13
9.07815e-06
-7.66891e-06
1.61425e-13
1.54812e-05
-1.17584e-05
-6.92571e-14
1.59524e-05
-1.4919e-05
-9.37471e-14
1.3498e-05
-1.70846e-05
-1.62231e-15
9.00352e-06
-1.82229e-05
1.32424e-13
2.30664e-06
-1.80286e-05
2.36843e-13
-6.85491e-06
-1.53703e-05
2.96982e-13
-1.83485e-05
-8.74458e-06
2.455e-13
-2.79386e-05
1.73394e-13
-2.28773e-05
-3.15568e-06
5.98657e-07
9.07815e-06
-7.66891e-06
7.73213e-07
1.54812e-05
-1.17584e-05
4.63238e-07
1.59524e-05
-1.49191e-05
-1.18509e-07
1.3498e-05
-1.70846e-05
-7.89346e-07
9.00352e-06
-1.82229e-05
-1.33837e-06
2.30664e-06
-1.80286e-05
-1.51067e-06
-6.85491e-06
-1.53703e-05
-1.15759e-06
-1.83485e-05
-8.74458e-06
-4.77175e-07
-2.79386e-05
7.40939e-09
-2.28773e-05
-2.96791e-06
1.03857e-06
9.02959e-06
-7.19511e-06
1.31868e-06
1.53652e-05
-1.10897e-05
8.10579e-07
1.58847e-05
-1.42303e-05
-1.43458e-07
1.35641e-05
-1.65421e-05
-1.26114e-06
9.22629e-06
-1.78996e-05
-2.21116e-06
2.66767e-06
-1.78704e-05
-2.57156e-06
-6.39438e-06
-1.52544e-05
-2.03195e-06
-1.77317e-05
-8.63363e-06
-8.58634e-07
-2.71763e-05
2.87106e-08
-2.23179e-05
-2.53981e-06
1.12836e-06
8.79787e-06
-6.11272e-06
1.38193e-06
1.48206e-05
-9.50407e-06
8.77821e-07
1.53782e-05
-1.24698e-05
-6.01212e-08
1.33583e-05
-1.49573e-05
-1.18202e-06
9.47091e-06
-1.67282e-05
-2.17996e-06
3.42435e-06
-1.71251e-05
-2.63663e-06
-5.16204e-06
-1.47776e-05
-2.15557e-06
-1.59723e-05
-8.33267e-06
-9.27e-07
-2.50411e-05
5.94279e-08
-2.08002e-05
-1.80907e-06
7.1258e-07
7.91162e-06
-4.26337e-06
8.09485e-07
1.28775e-05
-6.66988e-06
5.30616e-07
1.33119e-05
-9.0333e-06
2.53353e-08
1.18109e-05
-1.14028e-05
-5.83433e-07
8.91718e-06
-1.35177e-05
-1.14792e-06
4.24809e-06
-1.45464e-05
-1.4352e-06
-2.74897e-06
-1.29545e-05
-1.17556e-06
-1.18779e-05
-7.38177e-06
-4.7657e-07
-1.98608e-05
6.47508e-08
-1.7157e-05
-7.33916e-07
4.89142e-06
-1.60629e-06
7.13615e-06
-2.46532e-06
7.17683e-06
-3.49925e-06
6.51447e-06
-4.84975e-06
5.38649e-06
-6.40951e-06
3.48866e-06
-7.57201e-06
2.92595e-07
-7.18725e-06
-4.30105e-06
-4.25425e-06
-8.91178e-06
-8.79873e-06
-1.27469e-06
-8.29322e-07
6.99543e-06
-1.95202e-06
-8.42755e-07
8.65623e-06
-2.34268e-06
-3.54645e-07
7.92215e-06
-2.96661e-06
4.45151e-07
6.69324e-06
-4.22215e-06
1.4051e-06
5.23693e-06
-6.21187e-06
2.34891e-06
3.12947e-06
-8.40836e-06
2.91615e-06
-4.27066e-07
-9.1977e-06
2.56396e-06
-6.07566e-06
-6.48344e-06
1.20809e-06
-1.28341e-05
-2.80773e-07
-1.50014e-05
-2.47422e-06
-1.24874e-06
1.08053e-05
-4.60767e-06
-1.39691e-06
1.55651e-05
-6.18944e-06
-5.75474e-07
1.51145e-05
-7.65745e-06
8.00064e-07
1.2924e-05
-9.43618e-06
2.40849e-06
9.69252e-06
-1.16093e-05
3.84945e-06
4.92063e-06
-1.36023e-05
4.52186e-06
-2.36159e-06
-1.36904e-05
3.74085e-06
-1.29667e-05
-9.28796e-06
1.60066e-06
-2.46558e-05
-3.93621e-07
-2.63321e-05
-3.12279e-06
-1.11422e-06
1.17861e-05
-6.25588e-06
-1.30127e-06
1.7858e-05
-8.60626e-06
-5.13399e-07
1.76665e-05
-1.03623e-05
8.11508e-07
1.51029e-05
-1.1868e-05
2.31333e-06
1.10718e-05
-1.33106e-05
3.55568e-06
5.16073e-06
-1.44441e-05
3.97626e-06
-3.48293e-06
-1.39939e-05
3.09092e-06
-1.57726e-05
-9.50085e-06
1.19624e-06
-2.91297e-05
-3.14682e-07
-3.038e-05
-3.46806e-06
-6.30539e-07
1.2014e-05
-7.14295e-06
-7.51648e-07
1.84904e-05
-9.84387e-06
-2.85216e-07
1.83575e-05
-1.159e-05
4.98315e-07
1.56235e-05
-1.27196e-05
1.36475e-06
1.13045e-05
-1.35829e-05
2.04146e-06
5.04522e-06
-1.42416e-05
2.20697e-06
-3.96639e-06
-1.37162e-05
1.64117e-06
-1.68074e-05
-9.47981e-06
5.93292e-07
-3.08097e-05
-1.57882e-07
-3.19545e-05
-3.60825e-06
3.74476e-13
1.20559e-05
-7.50385e-06
4.91581e-14
1.86252e-05
-1.03212e-05
-1.52675e-13
1.84845e-05
-1.20052e-05
-1.48892e-13
1.56803e-05
-1.29169e-05
-1.80641e-14
1.128e-05
-1.35194e-05
1.46159e-13
4.95058e-06
-1.40337e-05
2.56555e-13
-4.13367e-06
-1.35771e-05
2.90919e-13
-1.71639e-05
-9.50276e-06
2.40255e-13
-3.14197e-05
1.96864e-13
-3.2538e-05
-3.60825e-06
6.3054e-07
1.20559e-05
-7.50385e-06
7.51648e-07
1.86252e-05
-1.03212e-05
2.85216e-07
1.84845e-05
-1.20052e-05
-4.98316e-07
1.56803e-05
-1.29169e-05
-1.36475e-06
1.128e-05
-1.35194e-05
-2.04146e-06
4.95058e-06
-1.40337e-05
-2.20697e-06
-4.13367e-06
-1.35771e-05
-1.64117e-06
-1.71639e-05
-9.50276e-06
-5.93292e-07
-3.14197e-05
1.57882e-07
-3.2538e-05
-3.46806e-06
1.11422e-06
1.2014e-05
-7.14295e-06
1.30127e-06
1.84904e-05
-9.84387e-06
5.13399e-07
1.83575e-05
-1.159e-05
-8.11508e-07
1.56235e-05
-1.27196e-05
-2.31333e-06
1.13045e-05
-1.35829e-05
-3.55568e-06
5.04522e-06
-1.42416e-05
-3.97626e-06
-3.96639e-06
-1.37162e-05
-3.09092e-06
-1.68074e-05
-9.47981e-06
-1.19624e-06
-3.08097e-05
3.14682e-07
-3.19545e-05
-3.12279e-06
1.24874e-06
1.17861e-05
-6.25588e-06
1.39691e-06
1.7858e-05
-8.60626e-06
5.75474e-07
1.76665e-05
-1.03623e-05
-8.00064e-07
1.51029e-05
-1.1868e-05
-2.40849e-06
1.10718e-05
-1.33106e-05
-3.84945e-06
5.16073e-06
-1.44441e-05
-4.52186e-06
-3.48293e-06
-1.39939e-05
-3.74085e-06
-1.57726e-05
-9.50085e-06
-1.60066e-06
-2.91297e-05
3.93621e-07
-3.038e-05
-2.47422e-06
8.29322e-07
1.08053e-05
-4.60767e-06
8.42755e-07
1.55651e-05
-6.18944e-06
3.54645e-07
1.51145e-05
-7.65745e-06
-4.45151e-07
1.2924e-05
-9.43618e-06
-1.4051e-06
9.69252e-06
-1.16093e-05
-2.34891e-06
4.92063e-06
-1.36023e-05
-2.91615e-06
-2.36159e-06
-1.36904e-05
-2.56396e-06
-1.29667e-05
-9.28796e-06
-1.20809e-06
-2.46558e-05
2.80772e-07
-2.63321e-05
-1.27469e-06
6.99543e-06
-1.95202e-06
8.65623e-06
-2.34268e-06
7.92215e-06
-2.96661e-06
6.69324e-06
-4.22215e-06
5.23693e-06
-6.21187e-06
3.12947e-06
-8.40836e-06
-4.27066e-07
-9.1977e-06
-6.07566e-06
-6.48344e-06
-1.28341e-05
-1.50014e-05
-2.51622e-06
-1.09301e-06
1.06047e-05
-2.34624e-06
-1.08085e-06
9.5671e-06
-1.44197e-06
-4.16228e-07
7.4341e-06
-8.81487e-07
6.19227e-07
5.51353e-06
-1.32831e-06
1.84176e-06
3.842e-06
-3.13641e-06
3.09269e-06
1.84488e-06
-6.16585e-06
4.00822e-06
-1.40584e-06
-8.67823e-06
3.70032e-06
-7.2636e-06
-7.66336e-06
1.6633e-06
-1.55123e-05
-9.7901e-07
-2.16857e-05
-4.1318e-06
-1.52455e-06
1.53686e-05
-4.92612e-06
-1.66124e-06
1.69398e-05
-4.20988e-06
-6.49371e-07
1.46314e-05
-3.25745e-06
9.50508e-07
1.16402e-05
-2.94935e-06
2.79911e-06
8.42706e-06
-3.80679e-06
4.50849e-06
4.36228e-06
-5.90815e-06
5.48363e-06
-1.73565e-06
-8.15903e-06
4.64867e-06
-1.16642e-05
-7.4885e-06
1.69956e-06
-2.53626e-05
-1.32664e-06
-3.3473e-05
-4.76777e-06
-1.28577e-06
1.63151e-05
-6.29339e-06
-1.46887e-06
1.91913e-05
-5.93395e-06
-5.54902e-07
1.72126e-05
-4.7905e-06
8.9072e-07
1.40192e-05
-3.70304e-06
2.49783e-06
1.02856e-05
-3.33846e-06
3.86862e-06
5.43602e-06
-4.16251e-06
4.4649e-06
-1.64014e-06
-5.96929e-06
3.51953e-06
-1.28367e-05
-6.09312e-06
1.09824e-06
-2.84046e-05
-9.70419e-07
-3.68294e-05
-5.02632e-06
-7.03414e-07
1.64579e-05
-6.91491e-06
-8.22328e-07
1.97325e-05
-6.7129e-06
-2.99288e-07
1.78999e-05
-5.40636e-06
5.24379e-07
1.46833e-05
-3.83871e-06
1.41623e-06
1.08184e-05
-2.81412e-06
2.13437e-06
5.75488e-06
-3.08512e-06
2.38036e-06
-1.61085e-06
-4.90645e-06
1.79005e-06
-1.32566e-05
-5.61029e-06
5.10867e-07
-2.95185e-05
-4.59934e-07
-3.80753e-05
-5.11046e-06
2.57258e-13
1.64629e-05
-7.12772e-06
2.03328e-16
1.98201e-05
-6.96205e-06
-1.65167e-13
1.80196e-05
-5.55746e-06
-1.6826e-13
1.48001e-05
-3.77698e-06
-5.47684e-14
1.09158e-05
-2.51088e-06
8.88595e-14
5.81885e-06
-2.6454e-06
1.8006e-13
-1.61879e-06
-4.58684e-06
2.3271e-13
-1.34324e-05
-5.5457e-06
2.17347e-13
-2.995e-05
2.13437e-13
-3.85436e-05
-5.11046e-06
7.03415e-07
1.64629e-05
-7.12772e-06
8.22328e-07
1.98201e-05
-6.96205e-06
2.99288e-07
1.80196e-05
-5.55746e-06
-5.24379e-07
1.48001e-05
-3.77698e-06
-1.41623e-06
1.09158e-05
-2.51088e-06
-2.13437e-06
5.81885e-06
-2.6454e-06
-2.38036e-06
-1.61879e-06
-4.58684e-06
-1.79005e-06
-1.34324e-05
-5.5457e-06
-5.10867e-07
-2.995e-05
4.59934e-07
-3.85436e-05
-5.02632e-06
1.28577e-06
1.64579e-05
-6.91491e-06
1.46887e-06
1.97325e-05
-6.7129e-06
5.54902e-07
1.78999e-05
-5.40636e-06
-8.9072e-07
1.46833e-05
-3.83871e-06
-2.49783e-06
1.08184e-05
-2.81412e-06
-3.86862e-06
5.75488e-06
-3.08512e-06
-4.4649e-06
-1.61085e-06
-4.90645e-06
-3.51953e-06
-1.32566e-05
-5.61029e-06
-1.09823e-06
-2.95185e-05
9.70419e-07
-3.80753e-05
-4.76777e-06
1.52455e-06
1.63151e-05
-6.29339e-06
1.66124e-06
1.91913e-05
-5.93395e-06
6.49371e-07
1.72126e-05
-4.7905e-06
-9.50508e-07
1.40192e-05
-3.70304e-06
-2.79911e-06
1.02856e-05
-3.33846e-06
-4.50849e-06
5.43602e-06
-4.16251e-06
-5.48363e-06
-1.64014e-06
-5.96929e-06
-4.64867e-06
-1.28367e-05
-6.09312e-06
-1.69956e-06
-2.84046e-05
1.32664e-06
-3.68294e-05
-4.1318e-06
1.09301e-06
1.53686e-05
-4.92612e-06
1.08085e-06
1.69398e-05
-4.20988e-06
4.16228e-07
1.46314e-05
-3.25745e-06
-6.19227e-07
1.16402e-05
-2.94935e-06
-1.84176e-06
8.42706e-06
-3.80679e-06
-3.09269e-06
4.36228e-06
-5.90815e-06
-4.00822e-06
-1.73565e-06
-8.15903e-06
-3.70032e-06
-1.16642e-05
-7.4885e-06
-1.6633e-06
-2.53626e-05
9.7901e-07
-3.3473e-05
-2.51622e-06
1.06047e-05
-2.34624e-06
9.5671e-06
-1.44197e-06
7.4341e-06
-8.81487e-07
5.51353e-06
-1.32831e-06
3.842e-06
-3.13641e-06
1.84488e-06
-6.16585e-06
-1.40584e-06
-8.67823e-06
-7.2636e-06
-7.66336e-06
-1.55123e-05
-2.16857e-05
-2.69383e-06
-1.85283e-06
1.51513e-05
4.3027e-07
-1.95682e-06
8.39983e-06
4.42557e-06
-1.18463e-06
4.62343e-06
7.27973e-06
-1.48421e-07
2.8078e-06
8.49281e-06
1.08043e-06
1.54849e-06
7.60689e-06
2.37324e-06
3.57555e-07
4.32617e-06
3.56397e-06
-1.6891e-06
-6.26015e-07
3.48943e-06
-5.80085e-06
-3.4759e-06
9.63152e-07
-1.36256e-05
-2.68086e-06
-2.24808e-05
-4.82925e-06
-2.21545e-06
2.05605e-05
-9.21303e-07
-2.6435e-06
1.37185e-05
4.91114e-06
-1.76172e-06
9.37608e-06
1.00279e-05
-3.24674e-07
6.6997e-06
1.37209e-05
1.33503e-06
4.47947e-06
1.52843e-05
2.99528e-06
2.17691e-06
1.38798e-05
4.30215e-06
-1.06934e-06
9.20137e-06
3.90704e-06
-7.40337e-06
3.04291e-06
7.73874e-07
-1.90149e-05
-2.7071e-06
-3.04039e-05
-5.60419e-06
-1.68737e-06
2.13912e-05
-1.91304e-06
-2.14612e-06
1.50028e-05
4.06349e-06
-1.45471e-06
1.09291e-05
9.84829e-06
-2.85808e-07
8.19557e-06
1.46708e-05
1.05924e-06
5.73898e-06
1.77114e-05
2.3388e-06
3.05188e-06
1.76975e-05
3.23045e-06
-5.54542e-07
1.35468e-05
2.81656e-06
-7.5956e-06
5.63886e-06
5.07531e-07
-2.02303e-05
-1.68479e-06
-3.22128e-05
-5.79706e-06
-8.72997e-07
2.14406e-05
-2.25344e-06
-1.14295e-06
1.51857e-05
3.71247e-06
-7.71229e-07
1.12505e-05
9.69591e-06
-1.45947e-07
8.55998e-06
1.4925e-05
5.6876e-07
6.07982e-06
1.8492e-05
1.22751e-06
3.29915e-06
1.88847e-05
1.64856e-06
-4.21637e-07
1.47626e-05