/*--------------------------------*- C++ -*----------------------------------*\
  =========                 |
  \\      /  F ield         | OpenFOAM: The Open Source CFD Toolbox
   \\    /   O peration     | Website:  https://openfoam.org
    \\  /    A nd           | Version:  9
     \\/     M anipulation  |
\*---------------------------------------------------------------------------*/
FoamFile
{
    format      ascii;
    class       volVectorField;
    location    "0.5";
    object      U;
}
// * * * * * * * * * * * * * * * * * * * * * * * * * * * * * * * * * * * * * //

dimensions      [0 1 -1 0 0 0 0];

internalField   nonuniform List<vector> 
1000
(
(-2.4799e-05 -0.00045241 0.000351868)
(-0.00153115 -0.000393241 0.00105682)
(-0.0047001 -0.000346967 0.00136855)
(-0.00800255 -0.000450534 0.00147582)
(-0.0107821 -0.00073754 0.00140877)
(-0.0121598 -0.00117293 0.0010887)
(-0.0112572 -0.00161214 0.000500984)
(-0.00780411 -0.00178654 -0.000143591)
(-0.00266658 -0.00143443 -0.00032833)
(6.87265e-05 -0.000425681 0.000286511)
(-0.000229083 -0.00156001 0.000597799)
(-0.00353638 -0.00185361 0.00220601)
(-0.0100615 -0.00190922 0.00287289)
(-0.016671 -0.00222514 0.00291191)
(-0.0219883 -0.00293804 0.0024159)
(-0.0243789 -0.00395739 0.00129418)
(-0.022293 -0.00491244 -0.000345345)
(-0.0153622 -0.00515364 -0.00182264)
(-0.00546074 -0.00411575 -0.00185969)
(-7.67868e-05 -0.00151316 0.000120051)
(-0.000400812 -0.00228706 0.000329544)
(-0.00490582 -0.00314706 0.00227268)
(-0.0135417 -0.00341109 0.00307011)
(-0.0221438 -0.00383476 0.00298591)
(-0.0288824 -0.00463898 0.0021128)
(-0.0316591 -0.00571984 0.000371877)
(-0.0285315 -0.00660584 -0.00200559)
(-0.0191844 -0.0066399 -0.00387765)
(-0.00631569 -0.00528757 -0.00344133)
(0.000233625 -0.00224481 -0.000148882)
(-0.000504418 -0.0019108 -2.23654e-05)
(-0.00575689 -0.00276293 0.0019795)
(-0.0157072 -0.00303868 0.0028037)
(-0.0255283 -0.00337834 0.00262133)
(-0.0330949 -0.003971 0.00149638)
(-0.0359615 -0.00473517 -0.000642825)
(-0.0319777 -0.00529211 -0.00345434)
(-0.0210014 -0.00520893 -0.00546888)
(-0.00632249 -0.00414706 -0.00456458)
(0.000653775 -0.00187046 -0.00032738)
(-0.000554032 -0.000732537 -0.000237016)
(-0.00616699 -0.00107949 0.00175448)
(-0.01675 -0.00119339 0.00257863)
(-0.0271515 -0.00131999 0.00234576)
(-0.0350937 -0.00153135 0.00109699)
(-0.0379625 -0.00179625 -0.00123748)
(-0.0335096 -0.00198343 -0.00423409)
(-0.0217063 -0.00193544 -0.00627926)
(-0.00617533 -0.00154225 -0.00510791)
(0.000917743 -0.000714218 -0.000406473)
(-0.000554032 0.000732575 -0.000237016)
(-0.00616699 0.00107952 0.00175448)
(-0.01675 0.00119341 0.00257863)
(-0.0271515 0.00132 0.00234576)
(-0.0350937 0.00153136 0.00109699)
(-0.0379625 0.00179626 -0.00123748)
(-0.0335096 0.00198343 -0.00423409)
(-0.0217063 0.00193544 -0.00627926)
(-0.00617533 0.00154225 -0.00510791)
(0.000917743 0.000714222 -0.000406473)
(-0.000504418 0.00191084 -2.23642e-05)
(-0.0057569 0.00276296 0.0019795)
(-0.0157072 0.0030387 0.0028037)
(-0.0255283 0.00337836 0.00262133)
(-0.0330949 0.00397102 0.00149638)
(-0.0359615 0.00473518 -0.000642826)
(-0.0319777 0.00529212 -0.00345434)
(-0.0210014 0.00520894 -0.00546888)
(-0.00632249 0.00414707 -0.00456458)
(0.000653774 0.00187046 -0.000327379)
(-0.000400811 0.00228712 0.000329546)
(-0.00490583 0.0031471 0.00227268)
(-0.0135417 0.00341111 0.00307011)
(-0.0221438 0.00383477 0.00298591)
(-0.0288824 0.00463899 0.0021128)
(-0.0316591 0.00571985 0.000371876)
(-0.0285315 0.00660584 -0.00200559)
(-0.0191844 0.0066399 -0.00387765)
(-0.00631569 0.00528757 -0.00344133)
(0.000233624 0.00224481 -0.00014888)
(-0.000229081 0.00156008 0.000597801)
(-0.0035364 0.00185364 0.00220601)
(-0.0100615 0.00190924 0.00287289)
(-0.0166711 0.00222515 0.00291191)
(-0.0219883 0.00293804 0.0024159)
(-0.0243789 0.0039574 0.00129418)
(-0.022293 0.00491245 -0.000345346)
(-0.0153622 0.00515364 -0.00182264)
(-0.00546075 0.00411575 -0.00185969)
(-7.67876e-05 0.00151316 0.000120052)
(-2.48203e-05 0.000452436 0.000351847)
(-0.00153121 0.000393245 0.00105682)
(-0.00470015 0.000346972 0.00136854)
(-0.00800259 0.000450538 0.00147582)
(-0.0107822 0.000737543 0.00140877)
(-0.0121598 0.00117294 0.0010887)
(-0.0112572 0.00161214 0.000500983)
(-0.00780411 0.00178654 -0.000143592)
(-0.00266658 0.00143443 -0.00032833)
(6.87255e-05 0.000425682 0.000286512)
(-0.000661466 -0.00129405 0.00330799)
(-0.00418529 -0.00161388 0.00657643)
(-0.0101852 -0.00164419 0.00776611)
(-0.0162424 -0.00170161 0.00783763)
(-0.0212484 -0.00189941 0.0069308)
(-0.0237642 -0.0022459 0.0048301)
(-0.0223305 -0.00260136 0.00161947)
(-0.016285 -0.00263339 -0.00171213)
(-0.00676766 -0.00193568 -0.00305953)
(-0.000699817 -0.000267806 -0.000742024)
(-0.00196039 -0.00373359 0.00548444)
(-0.0106275 -0.00513301 0.0124034)
(-0.0245083 -0.00540412 0.0147554)
(-0.0379914 -0.0056131 0.0140972)
(-0.0484401 -0.0061313 0.0108243)
(-0.052974 -0.0069464 0.00481376)
(-0.0489759 -0.00769015 -0.00314694)
(-0.0355499 -0.00752698 -0.0101551)
(-0.0154919 -0.00562997 -0.0111528)
(-0.00217305 -0.00148025 -0.00313752)
(-0.00290023 -0.00484854 0.00534219)
(-0.0151741 -0.00719577 0.0135586)
(-0.0343527 -0.00774447 0.0161874)
(-0.052485 -0.00803877 0.0146487)
(-0.0659453 -0.00861515 0.00936017)
(-0.0710841 -0.00943738 0.000373358)
(-0.0647574 -0.0100232 -0.0107327)
(-0.0462251 -0.00954718 -0.0194511)
(-0.019673 -0.00726996 -0.0187008)
(-0.00255524 -0.00260955 -0.00528052)
(-0.00346025 -0.00385037 0.00460665)
(-0.0179918 -0.00592141 0.0130527)
(-0.0404811 -0.00643024 0.0156056)
(-0.0613859 -0.00666064 0.01337)
(-0.0764658 -0.00705874 0.00670351)
(-0.0815937 -0.00759273 -0.00416667)
(-0.073431 -0.00785382 -0.0170825)
(-0.0516117 -0.00736835 -0.0264076)
(-0.0212868 -0.00567113 -0.0239181)
(-0.00241662 -0.00227636 -0.00666878)
(-0.00371429 -0.00144526 0.00409193)
(-0.0193217 -0.00225504 0.0124965)
(-0.0433977 -0.00245708 0.0149501)
(-0.0655936 -0.00254015 0.0123474)
(-0.0813687 -0.00267393 0.00499933)
(-0.0863671 -0.00284707 -0.00675662)
(-0.0772104 -0.00290976 -0.0204392)
(-0.0537926 -0.00271165 -0.0298956)
(-0.0217673 -0.0020998 -0.0264238)
(-0.00224674 -0.000883504 -0.00730662)
(-0.00371429 0.00144529 0.00409193)
(-0.0193217 0.00225506 0.0124965)
(-0.0433977 0.00245709 0.0149501)
(-0.0655936 0.00254016 0.0123474)
(-0.0813687 0.00267394 0.00499933)
(-0.0863671 0.00284708 -0.00675662)
(-0.0772104 0.00290977 -0.0204392)
(-0.0537926 0.00271165 -0.0298956)
(-0.0217673 0.00209981 -0.0264238)
(-0.00224674 0.00088351 -0.00730661)
(-0.00346025 0.0038504 0.00460665)
(-0.0179918 0.00592143 0.0130527)
(-0.0404811 0.00643025 0.0156056)
(-0.0613859 0.00666064 0.01337)
(-0.0764658 0.00705875 0.00670351)
(-0.0815937 0.00759273 -0.00416667)
(-0.073431 0.00785383 -0.0170825)
(-0.0516117 0.00736835 -0.0264076)
(-0.0212868 0.00567113 -0.0239181)
(-0.00241662 0.00227637 -0.00666878)
(-0.00290023 0.00484857 0.00534219)
(-0.0151741 0.00719578 0.0135586)
(-0.0343527 0.00774448 0.0161874)
(-0.052485 0.00803878 0.0146487)
(-0.0659453 0.00861516 0.00936017)
(-0.0710841 0.00943739 0.000373357)
(-0.0647574 0.0100232 -0.0107327)
(-0.0462251 0.00954719 -0.0194511)
(-0.019673 0.00726996 -0.0187008)
(-0.00255524 0.00260955 -0.00528052)
(-0.00196038 0.00373362 0.00548443)
(-0.0106275 0.00513302 0.0124034)
(-0.0245083 0.00540413 0.0147554)
(-0.0379915 0.00561311 0.0140972)
(-0.0484401 0.0061313 0.0108243)
(-0.052974 0.00694641 0.00481376)
(-0.0489759 0.00769015 -0.00314694)
(-0.0355499 0.00752699 -0.0101551)
(-0.0154919 0.00562997 -0.0111528)
(-0.00217305 0.00148026 -0.00313752)
(-0.000661467 0.00129405 0.00330793)
(-0.00418531 0.00161388 0.00657641)
(-0.0101852 0.00164419 0.00776609)
(-0.0162424 0.00170162 0.00783762)
(-0.0212484 0.00189941 0.00693079)
(-0.0237642 0.0022459 0.0048301)
(-0.0223305 0.00260136 0.00161947)
(-0.016285 0.00263339 -0.00171213)
(-0.00676766 0.00193568 -0.00305953)
(-0.000699817 0.000267807 -0.000742022)
(-0.00112808 -0.00203906 0.00956034)
(-0.00606049 -0.00264331 0.0170402)
(-0.0139278 -0.00265628 0.0193662)
(-0.0218446 -0.00254269 0.0190166)
(-0.028736 -0.0025082 0.0163633)
(-0.0329637 -0.0026535 0.0109991)
(-0.0324494 -0.00289851 0.0030731)
(-0.0254808 -0.0029276 -0.00538326)
(-0.0123482 -0.00215363 -0.00967377)
(-0.00216476 -3.60431e-05 -0.00489725)
(-0.00340406 -0.00563171 0.0158637)
(-0.0162991 -0.00781773 0.031167)
(-0.0356455 -0.00797313 0.0355014)
(-0.0541725 -0.00760949 0.0329433)
(-0.0689424 -0.00736313 0.0244712)
(-0.0765382 -0.00745461 0.00997993)
(-0.0732893 -0.00767378 -0.00889274)
(-0.0566142 -0.00741517 -0.0262311)
(-0.0279946 -0.00556439 -0.0307753)
(-0.00537642 -0.00091923 -0.0131642)
(-0.00510174 -0.00702479 0.0168903)
(-0.0238226 -0.0103651 0.0349296)
(-0.0511961 -0.0106821 0.039469)
(-0.0764905 -0.0101108 0.0345412)
(-0.0955104 -0.00952225 0.021294)
(-0.10391 -0.0091557 0.000143803)
(-0.097565 -0.00885177 -0.0255837)
(-0.0739986 -0.00822505 -0.0469918)
(-0.0359434 -0.00637116 -0.0485681)
(-0.00662826 -0.00193636 -0.0193857)
(-0.00614532 -0.00544412 0.0163252)
(-0.0285605 -0.00828521 0.0348986)
(-0.060957 -0.00856868 0.0390181)
(-0.0901867 -0.00804405 0.0322671)
(-0.111272 -0.00741457 0.0158333)
(-0.119445 -0.00685949 -0.00933633)
(-0.110566 -0.00634435 -0.0387377)
(-0.0826385 -0.00576366 -0.0615564)
(-0.0393605 -0.0045801 -0.0601047)
(-0.00688548 -0.00170559 -0.0231663)
(-0.00662582 -0.00201909 0.0157589)
(-0.0308006 -0.00311219 0.0342865)
(-0.0655836 -0.0032214 0.0380658)
(-0.0965926 -0.00300854 0.0303679)
(-0.118472 -0.00273916 0.0123989)
(-0.126299 -0.00248163 -0.0145678)
(-0.116042 -0.00224139 -0.0454286)
(-0.0860636 -0.0020157 -0.0685506)
(-0.0405499 -0.00162756 -0.0654208)
(-0.00687453 -0.000661402 -0.0248461)
(-0.00662582 0.00201912 0.0157589)
(-0.0308006 0.0031122 0.0342865)
(-0.0655836 0.00322141 0.0380658)
(-0.0965926 0.00300854 0.0303679)
(-0.118472 0.00273917 0.0123989)
(-0.126299 0.00248164 -0.0145678)
(-0.116042 0.0022414 -0.0454286)
(-0.0860636 0.0020157 -0.0685506)
(-0.0405499 0.00162757 -0.0654208)
(-0.00687453 0.000661408 -0.0248461)
(-0.00614532 0.00544415 0.0163252)
(-0.0285605 0.00828522 0.0348986)
(-0.060957 0.00856868 0.0390181)
(-0.0901867 0.00804405 0.0322671)
(-0.111272 0.00741457 0.0158333)
(-0.119445 0.0068595 -0.00933633)
(-0.110566 0.00634436 -0.0387377)
(-0.0826385 0.00576366 -0.0615564)
(-0.0393605 0.00458011 -0.0601047)
(-0.00688548 0.0017056 -0.0231663)
(-0.00510174 0.00702481 0.0168903)
(-0.0238226 0.0103651 0.0349296)
(-0.0511961 0.0106821 0.0394691)
(-0.0764905 0.0101108 0.0345413)
(-0.0955104 0.00952225 0.021294)
(-0.10391 0.0091557 0.000143803)
(-0.097565 0.00885178 -0.0255837)
(-0.0739986 0.00822505 -0.0469918)
(-0.0359434 0.00637116 -0.0485681)
(-0.00662826 0.00193637 -0.0193857)
(-0.00340405 0.00563172 0.0158637)
(-0.0162991 0.00781773 0.031167)
(-0.0356455 0.00797313 0.0355014)
(-0.0541725 0.00760949 0.0329433)
(-0.0689424 0.00736313 0.0244712)
(-0.0765382 0.00745461 0.00997993)
(-0.0732893 0.00767378 -0.00889274)
(-0.0566142 0.00741518 -0.0262311)
(-0.0279946 0.00556439 -0.0307753)
(-0.00537642 0.000919232 -0.0131642)
(-0.00112808 0.00203907 0.00956029)
(-0.0060605 0.00264331 0.0170402)
(-0.0139279 0.00265628 0.0193662)
(-0.0218446 0.00254269 0.0190166)
(-0.028736 0.0025082 0.0163633)
(-0.0329637 0.0026535 0.0109991)
(-0.0324494 0.00289851 0.0030731)
(-0.0254808 0.0029276 -0.00538326)
(-0.0123482 0.00215363 -0.00967377)
(-0.00216476 3.60435e-05 -0.00489725)
(-0.00152783 -0.00273748 0.0179131)
(-0.00752576 -0.00351172 0.0304193)
(-0.0167154 -0.00333852 0.0337579)
(-0.0261361 -0.00282951 0.0326982)
(-0.0351809 -0.0023049 0.0279841)
(-0.0423115 -0.00201756 0.0187824)
(-0.0446857 -0.00208814 0.00480084)
(-0.0386378 -0.00237655 -0.0112423)
(-0.0221302 -0.00202338 -0.0211924)
(-0.00538234 0.000112362 -0.013683)
(-0.00464483 -0.0073963 0.0297721)
(-0.0209765 -0.0100312 0.0551523)
(-0.0446226 -0.00954725 0.0612618)
(-0.0673624 -0.00786923 0.0561035)
(-0.0867617 -0.00595919 0.0414994)
(-0.0994191 -0.00448391 0.0169468)
(-0.1004 -0.0038409 -0.0159828)
(-0.0839223 -0.00411762 -0.0488615)
(-0.0476929 -0.00382275 -0.0620948)
(-0.0115613 -0.000271484 -0.0326282)
(-0.00699279 -0.00901876 0.0326829)
(-0.0310503 -0.0128817 0.0626094)
(-0.0649887 -0.0122213 0.0687716)
(-0.0961415 -0.00969594 0.0595672)
(-0.120726 -0.00661186 0.0372953)
(-0.134434 -0.00384985 0.0023031)
(-0.132012 -0.00221946 -0.0416542)
(-0.107718 -0.00229938 -0.0820578)
(-0.0601879 -0.00286492 -0.0926234)
(-0.014165 -0.000841877 -0.0449976)
(-0.00844713 -0.00687965 0.0327468)
(-0.0374066 -0.0100906 0.0636972)
(-0.0777082 -0.0095223 0.069045)
(-0.113513 -0.00732862 0.0568685)
(-0.140212 -0.0045736 0.0297749)
(-0.153279 -0.00200064 -0.0110096)
(-0.147777 -0.000462111 -0.060152)
(-0.118651 -0.000554865 -0.103055)
(-0.065465 -0.0014303 -0.110449)
(-0.0150427 -0.000714283 -0.0518056)
(-0.00911625 -0.00253018 0.0323708)
(-0.0403915 -0.00375125 0.0633625)
(-0.0836597 -0.003527 0.0681142)
(-0.121459 -0.00266864 0.0544438)
(-0.148799 -0.0015827 0.0251507)
(-0.161161 -0.000562149 -0.0180101)
(-0.153969 4.79226e-05 -0.0689675)
(-0.122701 -4.23359e-06 -0.112413)
(-0.0673283 -0.00040269 -0.118077)
(-0.0152958 -0.000269915 -0.0546363)
(-0.00911625 0.0025302 0.0323708)
(-0.0403915 0.00375126 0.0633625)
(-0.0836597 0.003527 0.0681142)
(-0.121459 0.00266864 0.0544438)
(-0.148799 0.0015827 0.0251507)
(-0.161161 0.000562151 -0.0180101)
(-0.153969 -4.79193e-05 -0.0689675)
(-0.122701 4.23795e-06 -0.112413)
(-0.0673283 0.000402695 -0.118077)
(-0.0152958 0.00026992 -0.0546363)
(-0.00844713 0.00687967 0.0327468)
(-0.0374066 0.0100906 0.0636972)
(-0.0777082 0.0095223 0.069045)
(-0.113513 0.00732862 0.0568685)
(-0.140212 0.00457361 0.0297749)
(-0.153279 0.00200064 -0.0110096)
(-0.147777 0.000462115 -0.060152)
(-0.118651 0.000554869 -0.103055)
(-0.065465 0.0014303 -0.110449)
(-0.0150427 0.000714286 -0.0518056)
(-0.00699279 0.00901877 0.0326829)
(-0.0310503 0.0128817 0.0626094)
(-0.0649887 0.0122213 0.0687716)
(-0.0961415 0.00969594 0.0595672)
(-0.120726 0.00661187 0.0372953)
(-0.134434 0.00384985 0.0023031)
(-0.132012 0.00221947 -0.0416542)
(-0.107718 0.00229938 -0.0820578)
(-0.0601879 0.00286492 -0.0926234)
(-0.014165 0.00084188 -0.0449976)
(-0.00464482 0.00739631 0.029772)
(-0.0209765 0.0100312 0.0551523)
(-0.0446226 0.00954726 0.0612618)
(-0.0673624 0.00786923 0.0561035)
(-0.0867617 0.0059592 0.0414994)
(-0.0994191 0.00448391 0.0169468)
(-0.1004 0.0038409 -0.0159828)
(-0.0839223 0.00411762 -0.0488615)
(-0.0476929 0.00382275 -0.0620948)
(-0.0115613 0.000271485 -0.0326282)
(-0.00152783 0.00273749 0.017913)
(-0.00752576 0.00351172 0.0304193)
(-0.0167154 0.00333852 0.0337579)
(-0.0261361 0.00282951 0.0326982)
(-0.0351809 0.0023049 0.0279841)
(-0.0423115 0.00201756 0.0187824)
(-0.0446857 0.00208814 0.00480084)
(-0.0386378 0.00237655 -0.0112423)
(-0.0221302 0.00202338 -0.0211924)
(-0.00538234 -0.000112362 -0.013683)
(-0.00212136 -0.00334822 0.0283482)
(-0.00902427 -0.00412753 0.046109)
(-0.0187772 -0.00349317 0.049858)
(-0.0289792 -0.00219468 0.0475801)
(-0.0400973 -0.000697651 0.0405297)
(-0.0512679 0.000517665 0.0271561)
(-0.0590017 0.000907766 0.00593699)
(-0.0568217 0.000118002 -0.0206318)
(-0.0385959 -0.000868661 -0.0406098)
(-0.0119023 1.80012e-05 -0.0311777)
(-0.00599974 -0.00888169 0.0469642)
(-0.0250676 -0.0115063 0.0832953)
(-0.0513388 -0.00961086 0.0905159)
(-0.0766652 -0.00548979 0.0821697)
(-0.100108 -0.000543425 0.0611942)
(-0.119187 0.00380893 0.0260497)
(-0.127968 0.00590219 -0.0232643)
(-0.11657 0.00426496 -0.0775989)
(-0.076908 0.000561552 -0.108444)
(-0.0228775 -9.52796e-06 -0.0684749)
(-0.00880371 -0.0106208 0.0522862)
(-0.0369213 -0.0144109 0.0953393)
(-0.0749439 -0.0117803 0.102641)
(-0.109448 -0.00587101 0.088927)
(-0.13818 0.00133373 0.0580351)
(-0.157958 0.00776614 0.00947986)
(-0.162894 0.0109569 -0.0545866)
(-0.143542 0.00878939 -0.120758)
(-0.093059 0.00310872 -0.152125)
(-0.0272043 1.93648e-05 -0.0896127)
(-0.0105015 -0.00798901 0.0533136)
(-0.0442648 -0.0110945 0.0980885)
(-0.0893396 -0.00890248 0.104366)
(-0.128496 -0.00396067 0.0869631)
(-0.158697 0.00204815 0.050426)
(-0.176808 0.00732793 -0.00460638)
(-0.177941 0.00975562 -0.0745817)
(-0.153979 0.00775356 -0.144535)
(-0.0991484 0.00300381 -0.174434)
(-0.0288307 9.51109e-05 -0.0999959)
(-0.0112664 -0.00291601 0.0533081)
(-0.0476428 -0.00408665 0.0983148)
(-0.095899 -0.00324447 0.103851)
(-0.136868 -0.00135093 0.0846772)
(-0.167189 0.000939647 0.0457769)
(-0.18395 0.00292282 -0.011564)
(-0.183088 0.0037817 -0.0832937)
(-0.157329 0.00296869 -0.154141)
(-0.101222 0.00117556 -0.183171)
(-0.0294231 5.16169e-05 -0.104024)
(-0.0112664 0.00291603 0.0533081)
(-0.0476428 0.00408666 0.0983148)
(-0.095899 0.00324447 0.103851)
(-0.136868 0.00135093 0.0846772)
(-0.167189 -0.000939646 0.0457769)
(-0.18395 -0.00292282 -0.011564)
(-0.183088 -0.0037817 -0.0832937)
(-0.157329 -0.00296869 -0.154141)
(-0.101222 -0.00117555 -0.183171)
(-0.0294231 -5.16131e-05 -0.104024)
(-0.0105015 0.00798903 0.0533136)
(-0.0442648 0.0110945 0.0980885)
(-0.0893396 0.00890248 0.104366)
(-0.128496 0.00396068 0.0869631)
(-0.158697 -0.00204815 0.050426)
(-0.176808 -0.00732793 -0.00460638)
(-0.177941 -0.00975561 -0.0745817)
(-0.153979 -0.00775355 -0.144535)
(-0.0991484 -0.00300381 -0.174434)
(-0.0288307 -9.51071e-05 -0.0999959)
(-0.00880371 0.0106208 0.0522862)
(-0.0369213 0.0144109 0.0953393)
(-0.0749439 0.0117803 0.102641)
(-0.109448 0.00587102 0.088927)
(-0.13818 -0.00133373 0.0580351)
(-0.157958 -0.00776614 0.00947986)
(-0.162894 -0.0109569 -0.0545866)
(-0.143542 -0.00878938 -0.120758)
(-0.093059 -0.00310871 -0.152125)
(-0.0272043 -1.93614e-05 -0.0896127)
(-0.00599974 0.00888169 0.0469642)
(-0.0250676 0.0115063 0.0832953)
(-0.0513388 0.00961087 0.0905159)
(-0.0766652 0.00548979 0.0821697)
(-0.100108 0.000543427 0.0611942)
(-0.119187 -0.00380893 0.0260497)
(-0.127968 -0.00590219 -0.0232643)
(-0.11657 -0.00426495 -0.0775989)
(-0.076908 -0.00056155 -0.108444)
(-0.0228775 9.52872e-06 -0.0684749)
(-0.00212135 0.00334822 0.0283482)
(-0.00902427 0.00412753 0.046109)
(-0.0187772 0.00349317 0.049858)
(-0.0289792 0.00219468 0.0475801)
(-0.0400973 0.000697652 0.0405297)
(-0.0512679 -0.000517664 0.0271561)
(-0.0590017 -0.000907765 0.00593699)
(-0.0568217 -0.000118001 -0.0206318)
(-0.0385959 0.000868661 -0.0406098)
(-0.0119023 -1.80022e-05 -0.0311777)
(-0.0035039 -0.00388527 0.041209)
(-0.0114584 -0.0044311 0.0629795)
(-0.0203087 -0.00296053 0.0654582)
(-0.0294906 -0.000365232 0.0608445)
(-0.0413714 0.00276639 0.0510833)
(-0.0566581 0.00568416 0.0336693)
(-0.0719412 0.00720561 0.00500707)
(-0.0777394 0.00591324 -0.034555)
(-0.0621046 0.00236683 -0.0701222)
(-0.0226913 -0.000329917 -0.0630965)
(-0.00815748 -0.0100543 0.0674197)
(-0.0292772 -0.0120733 0.113647)
(-0.0550061 -0.00785153 0.120145)
(-0.0789182 -7.6438e-05 0.107775)
(-0.102843 0.00931524 0.0809593)
(-0.12661 0.0179346 0.0366508)
(-0.144657 0.0222851 -0.0284503)
(-0.14376 0.0185538 -0.108251)
(-0.109882 0.00793687 -0.168204)
(-0.0386018 -0.000800256 -0.128918)
(-0.0111035 -0.0117399 0.0752483)
(-0.0416101 -0.0147944 0.130685)
(-0.0791922 -0.00921322 0.137803)
(-0.111509 0.0012818 0.119707)
(-0.139169 0.0137342 0.08226)
(-0.161656 0.0245505 0.0235028)
(-0.174258 0.0290617 -0.0582967)
(-0.165384 0.0233329 -0.153991)
(-0.124068 0.00991652 -0.220833)
(-0.0433666 -0.000461628 -0.161064)
(-0.0127711 -0.00868988 0.077258)
(-0.0489132 -0.0112097 0.135312)
(-0.0932621 -0.00673289 0.141635)
(-0.129243 0.00169371 0.119967)
(-0.156796 0.0115046 0.0772717)
(-0.175901 0.0195905 0.0127222)
(-0.183659 0.0222432 -0.074694)
(-0.170708 0.0171208 -0.175398)
(-0.128015 0.00704446 -0.244142)
(-0.0451391 -0.000149412 -0.175277)
(-0.0134855 -0.00314499 0.0776383)
(-0.0521432 -0.00409363 0.136207)
(-0.0993906 -0.00240905 0.141868)
(-0.136544 0.000752289 0.118576)
(-0.163331 0.00438663 0.0739323)
(-0.180297 0.00728711 0.0076949)
(-0.185804 0.00807868 -0.0810949)
(-0.171669 0.00606316 -0.183176)
(-0.12928 0.00244722 -0.252613)
(-0.0458944 -1.58612e-05 -0.180566)
(-0.0134855 0.003145 0.0776383)
(-0.0521432 0.00409363 0.136207)
(-0.0993906 0.00240905 0.141868)
(-0.136544 -0.000752291 0.118576)
(-0.163331 -0.00438663 0.0739323)
(-0.180297 -0.00728711 0.0076949)
(-0.185804 -0.00807867 -0.0810949)
(-0.171669 -0.00606315 -0.183176)
(-0.12928 -0.00244722 -0.252613)
(-0.0458944 1.58648e-05 -0.180566)
(-0.0127711 0.00868989 0.077258)
(-0.0489132 0.0112097 0.135312)
(-0.0932621 0.00673289 0.141635)
(-0.129243 -0.00169371 0.119967)
(-0.156796 -0.0115046 0.0772717)
(-0.175901 -0.0195905 0.0127222)
(-0.183659 -0.0222431 -0.074694)
(-0.170708 -0.0171208 -0.175398)
(-0.128015 -0.00704446 -0.244142)
(-0.0451391 0.000149416 -0.175277)
(-0.0111035 0.0117399 0.0752483)
(-0.0416101 0.0147944 0.130685)
(-0.0791922 0.00921322 0.137803)
(-0.111509 -0.0012818 0.119707)
(-0.139169 -0.0137342 0.08226)
(-0.161656 -0.0245505 0.0235028)
(-0.174258 -0.0290617 -0.0582967)
(-0.165384 -0.0233329 -0.153991)
(-0.124068 -0.00991652 -0.220833)
(-0.0433666 0.000461631 -0.161064)
(-0.00815748 0.0100543 0.0674196)
(-0.0292772 0.0120733 0.113647)
(-0.0550061 0.00785153 0.120145)
(-0.0789182 7.64402e-05 0.107775)
(-0.102843 -0.00931524 0.0809593)
(-0.12661 -0.0179346 0.0366508)
(-0.144657 -0.0222851 -0.0284503)
(-0.14376 -0.0185538 -0.108251)
(-0.109882 -0.00793687 -0.168204)
(-0.0386018 0.000800257 -0.128918)
(-0.0035039 0.00388527 0.041209)
(-0.0114584 0.0044311 0.0629795)
(-0.0203087 0.00296053 0.0654582)
(-0.0294906 0.000365234 0.0608445)
(-0.0413714 -0.00276639 0.0510833)
(-0.0566581 -0.00568416 0.0336693)
(-0.0719412 -0.00720561 0.00500707)
(-0.0777394 -0.00591324 -0.034555)
(-0.0621046 -0.00236683 -0.0701222)
(-0.0226913 0.000329916 -0.0630965)
(-0.00725722 -0.00463136 0.0585823)
(-0.0170911 -0.00475443 0.0795067)
(-0.0216798 -0.00210477 0.0771296)
(-0.0258554 0.00217098 0.0680674)
(-0.0346914 0.00735796 0.0550682)
(-0.0514109 0.012571 0.0344989)
(-0.0744122 0.0159478 0.000149681)
(-0.0921213 0.0144477 -0.0527114)
(-0.0873456 0.00727589 -0.109015)
(-0.0360733 -0.00130324 -0.116321)
(-0.0131363 -0.0114011 0.092894)
(-0.0360903 -0.0123749 0.143274)
(-0.0550597 -0.00521243 0.144657)
(-0.0694595 0.00667578 0.126609)
(-0.0851692 0.0208347 0.0953052)
(-0.105805 0.0341895 0.0462203)
(-0.129064 0.0414811 -0.0282843)
(-0.141185 0.0356769 -0.13125)
(-0.127243 0.016111 -0.230127)
(-0.0499613 -0.00412238 -0.2191)
(-0.0159117 -0.0127573 0.102523)
(-0.0472258 -0.0147219 0.164672)
(-0.0764222 -0.00587178 0.167814)
(-0.0965348 0.00907093 0.145109)
(-0.112387 0.0262243 0.104503)
(-0.12766 0.0409163 0.0424255)
(-0.141985 0.0467012 -0.0478345)
(-0.144998 0.0372273 -0.168829)
(-0.129226 0.0148902 -0.282502)
(-0.0509857 -0.00390871 -0.260941)
(-0.0172521 -0.00920959 0.104969)
(-0.053245 -0.0109368 0.170674)
(-0.0878891 -0.00414388 0.173794)
(-0.109933 0.00733381 0.148613)
(-0.1237 0.0201251 0.104249)
(-0.133625 0.0302671 0.0379508)
(-0.14182 0.0329775 -0.0567592)
(-0.141026 0.0247607 -0.183538)
(-0.127582 0.00908669 -0.302926)
(-0.0515108 -0.00241041 -0.277881)
(-0.0177656 -0.00329233 0.105479)
(-0.0557275 -0.0039546 0.171987)
(-0.0925296 -0.00145411 0.174777)
(-0.114904 0.00275645 0.148533)
(-0.127101 0.00736622 0.102996)
(-0.134261 0.0108583 0.0357715)
(-0.140042 0.0115269 -0.0598303)
(-0.138619 0.00837241 -0.188473)
(-0.127188 0.00294201 -0.310159)
(-0.0520635 -0.000767503 -0.284129)
(-0.0177656 0.00329234 0.105479)
(-0.0557275 0.0039546 0.171987)
(-0.0925296 0.00145411 0.174777)
(-0.114904 -0.00275646 0.148533)
(-0.127101 -0.00736622 0.102996)
(-0.134261 -0.0108583 0.0357715)
(-0.140042 -0.0115269 -0.0598303)
(-0.138619 -0.0083724 -0.188473)
(-0.127188 -0.00294201 -0.310159)
(-0.0520635 0.000767506 -0.284129)
(-0.0172521 0.00920959 0.104969)
(-0.053245 0.0109368 0.170674)
(-0.0878891 0.00414387 0.173794)
(-0.109933 -0.00733381 0.148613)
(-0.1237 -0.0201251 0.104249)
(-0.133625 -0.0302671 0.0379508)
(-0.14182 -0.0329775 -0.0567592)
(-0.141026 -0.0247607 -0.183538)
(-0.127582 -0.00908669 -0.302926)
(-0.0515108 0.00241042 -0.277881)
(-0.0159117 0.0127573 0.102523)
(-0.0472258 0.0147219 0.164672)
(-0.0764222 0.00587178 0.167814)
(-0.0965348 -0.00907093 0.145109)
(-0.112387 -0.0262243 0.104503)
(-0.12766 -0.0409163 0.0424255)
(-0.141985 -0.0467012 -0.0478345)
(-0.144998 -0.0372273 -0.168829)
(-0.129226 -0.0148902 -0.282502)
(-0.0509857 0.00390872 -0.260941)
(-0.0131363 0.0114011 0.092894)
(-0.0360903 0.012375 0.143274)
(-0.0550597 0.00521243 0.144657)
(-0.0694595 -0.00667578 0.126609)
(-0.0851692 -0.0208347 0.0953052)
(-0.105805 -0.0341895 0.0462203)
(-0.129064 -0.0414811 -0.0282843)
(-0.141185 -0.0356769 -0.13125)
(-0.127243 -0.016111 -0.230127)
(-0.0499613 0.00412238 -0.2191)
(-0.00725723 0.00463136 0.0585823)
(-0.0170911 0.00475443 0.0795067)
(-0.0216798 0.00210477 0.0771296)
(-0.0258554 -0.00217098 0.0680674)
(-0.0346914 -0.00735796 0.0550682)
(-0.0514109 -0.012571 0.0344989)
(-0.0744122 -0.0159478 0.000149681)
(-0.0921213 -0.0144477 -0.0527114)
(-0.0873456 -0.00727589 -0.109015)
(-0.0360733 0.00130324 -0.116321)
(-0.0166425 -0.00636272 0.0816762)
(-0.0289697 -0.00641872 0.092041)
(-0.0193811 -0.00268982 0.0802779)
(-0.0102856 0.00314855 0.0643947)
(-0.00853422 0.0100734 0.0480057)
(-0.0195945 0.0174055 0.0263521)
(-0.0459209 0.0231255 -0.00992326)
(-0.0762934 0.0219142 -0.0723979)
(-0.0964016 0.0104463 -0.151673)
(-0.0418025 -0.00591643 -0.19511)
(-0.0260048 -0.0144586 0.121935)
(-0.0515157 -0.0151823 0.16533)
(-0.048046 -0.00592948 0.156206)
(-0.0373142 0.00869456 0.129977)
(-0.0295208 0.0257297 0.0961549)
(-0.031559 0.0424549 0.0494548)
(-0.048408 0.0535444 -0.0221307)
(-0.0694944 0.0477463 -0.135305)
(-0.0956414 0.0195512 -0.272924)
(-0.0360307 -0.0139504 -0.325439)
(-0.0289589 -0.0150741 0.131507)
(-0.0614342 -0.0169438 0.189511)
(-0.0649 -0.00642196 0.183954)
(-0.0552087 0.0103366 0.154844)
(-0.042595 0.0292044 0.114273)
(-0.0338796 0.0458767 0.0577674)
(-0.0370768 0.0540967 -0.0258209)
(-0.0460149 0.0439886 -0.155549)
(-0.0759672 0.014625 -0.313665)
(-0.0278192 -0.012028 -0.366806)
(-0.0299649 -0.0104062 0.133535)
(-0.0657305 -0.0120878 0.196091)
(-0.072715 -0.00439844 0.191781)
(-0.0631281 0.00778192 0.161791)
(-0.047213 0.0210983 0.119208)
(-0.0321087 0.0319909 0.059998)
(-0.0283745 0.0359724 -0.0268108)
(-0.0329958 0.0273824 -0.162085)
(-0.0679349 0.00806773 -0.328076)
(-0.0261211 -0.00703976 -0.38212)
(-0.0302431 -0.00363864 0.133863)
(-0.0672011 -0.00428461 0.197461)
(-0.0753926 -0.00151858 0.193347)
(-0.0655126 0.00283589 0.163054)
(-0.0479358 0.00750522 0.120041)
(-0.0301708 0.0111584 0.0603848)
(-0.0241808 0.0122289 -0.027126)
(-0.0283148 0.00899625 -0.164376)
(-0.0662485 0.00251535 -0.333359)
(-0.0263573 -0.00219558 -0.387776)
(-0.0302431 0.00363864 0.133863)
(-0.0672011 0.00428461 0.197461)
(-0.0753926 0.00151858 0.193347)
(-0.0655126 -0.0028359 0.163054)
(-0.0479358 -0.00750522 0.120041)
(-0.0301708 -0.0111584 0.0603848)
(-0.0241808 -0.0122289 -0.027126)
(-0.0283148 -0.00899624 -0.164376)
(-0.0662485 -0.00251534 -0.333359)
(-0.0263573 0.00219558 -0.387776)
(-0.0299649 0.0104062 0.133535)
(-0.0657305 0.0120878 0.196091)
(-0.072715 0.00439844 0.191781)
(-0.0631281 -0.00778192 0.161791)
(-0.047213 -0.0210983 0.119208)
(-0.0321087 -0.0319909 0.059998)
(-0.0283745 -0.0359724 -0.0268108)
(-0.0329958 -0.0273824 -0.162085)
(-0.0679349 -0.00806772 -0.328076)
(-0.0261211 0.00703976 -0.38212)
(-0.0289589 0.0150741 0.131507)
(-0.0614342 0.0169438 0.189511)
(-0.0649 0.00642196 0.183954)
(-0.0552087 -0.0103366 0.154844)
(-0.042595 -0.0292044 0.114273)
(-0.0338796 -0.0458767 0.0577674)
(-0.0370768 -0.0540967 -0.0258209)
(-0.0460149 -0.0439886 -0.155549)
(-0.0759672 -0.014625 -0.313665)
(-0.0278192 0.012028 -0.366806)
(-0.0260048 0.0144586 0.121935)
(-0.0515157 0.0151823 0.16533)
(-0.048046 0.00592948 0.156206)
(-0.0373142 -0.00869455 0.129977)
(-0.0295208 -0.0257297 0.0961549)
(-0.031559 -0.0424549 0.0494548)
(-0.048408 -0.0535444 -0.0221307)
(-0.0694944 -0.0477463 -0.135305)
(-0.0956414 -0.0195512 -0.272924)
(-0.0360307 0.0139504 -0.325439)
(-0.0166425 0.00636272 0.0816762)
(-0.0289697 0.00641872 0.092041)
(-0.0193811 0.00268982 0.0802779)
(-0.0102856 -0.00314854 0.0643947)
(-0.00853423 -0.0100734 0.0480057)
(-0.0195945 -0.0174055 0.0263521)
(-0.0459209 -0.0231255 -0.00992326)
(-0.0762934 -0.0219142 -0.0723979)
(-0.0964016 -0.0104463 -0.151673)
(-0.0418025 0.00591643 -0.19511)
(-0.0238825 -0.0112094 0.150397)
(-0.0207078 -0.0118917 0.0981955)
(0.0270768 -0.00735188 0.0628926)
(0.0610588 -0.000873037 0.0416629)
(0.0819084 0.00645747 0.0254063)
(0.0844971 0.0143547 0.00773171)
(0.0625921 0.0216793 -0.0207612)
(0.0253188 0.0210214 -0.0782475)
(-0.0421978 0.00541557 -0.173473)
(-0.00684814 -0.0176729 -0.259361)
(-0.0427069 -0.022924 0.209772)
(-0.0426516 -0.0258101 0.16912)
(0.0212081 -0.0166346 0.12726)
(0.0765728 -0.0026472 0.0954205)
(0.121184 0.0135383 0.0662625)
(0.149433 0.0302218 0.0328479)
(0.148061 0.0448146 -0.016384)
(0.129387 0.0431822 -0.106816)
(0.0391436 0.0107731 -0.255829)
(0.0434072 -0.0314813 -0.369169)
(-0.0480536 -0.0207318 0.219867)
(-0.0524557 -0.0256762 0.189162)
(0.0103257 -0.0172677 0.150307)
(0.0701843 -0.00330274 0.117358)
(0.123622 0.0130034 0.0845258)
(0.165751 0.0287877 0.0452787)
(0.178594 0.0405051 -0.0109646)
(0.174408 0.0361945 -0.110159)
(0.0795422 0.0066162 -0.274901)
(0.0627263 -0.0222198 -0.394902)
(-0.0490683 -0.0132119 0.220817)
(-0.0552533 -0.0170975 0.193178)
(0.00616815 -0.0115348 0.156007)
(0.06708 -0.00215554 0.123453)
(0.123452 0.00862864 0.0900185)
(0.170735 0.0186592 0.0491918)
(0.188479 0.0252151 -0.00939248)
(0.188499 0.0214527 -0.11157)
(0.0894435 0.00396421 -0.281681)
(0.0657522 -0.0115685 -0.403645)
(-0.0490957 -0.00444678 0.220581)
(-0.0556522 -0.00586109 0.193508)
(0.00543624 -0.00393656 0.156795)
(0.0668011 -0.000702262 0.124467)
(0.124139 0.00296552 0.0910719)
(0.172948 0.0062968 0.0500162)
(0.191823 0.00832527 -0.0092347)
(0.192139 0.00693866 -0.112588)
(0.0905021 0.00134976 -0.284508)
(0.0653607 -0.00341725 -0.406834)
(-0.0490957 0.00444678 0.220581)
(-0.0556522 0.00586109 0.193508)
(0.00543624 0.00393656 0.156795)