/*--------------------------------*- C++ -*----------------------------------*\
  =========                 |
  \\      /  F ield         | OpenFOAM: The Open Source CFD Toolbox
   \\    /   O peration     | Website:  https://openfoam.org
    \\  /    A nd           | Version:  9
     \\/     M anipulation  |
\*---------------------------------------------------------------------------*/
FoamFile
{
    format      ascii;
    class       volScalarField;
    location    "0.27";
    object      p;
}
// * * * * * * * * * * * * * * * * * * * * * * * * * * * * * * * * * * * * * //

dimensions      [0 2 -2 0 0 0 0];

internalField   nonuniform List<scalar> 
1000
(
5.01547e-08
-0.00035691
0.000219498
0.00159768
0.00374184
0.0064611
0.00933113
0.0116988
0.012925
0.0123197
0.000167233
-0.000498348
1.66077e-05
0.00144818
0.00373759
0.00667414
0.00978307
0.0123148
0.0135064
0.01244
0.000636545
-0.00022114
0.000264219
0.00174968
0.004178
0.00733051
0.0106807
0.0133402
0.014426
0.012871
0.00108927
0.000120925
0.000586915
0.00210947
0.00463701
0.0079471
0.011448
0.0141777
0.0151757
0.0132967
0.00135602
0.000341774
0.000798901
0.00233765
0.00491065
0.00829202
0.0118666
0.0146267
0.0155803
0.0135508
0.00135569
0.000341478
0.00079866
0.00233746
0.00491051
0.00829192
0.0118665
0.0146267
0.0155803
0.0135508
0.00108822
0.00012
0.000586182
0.00210891
0.00463659
0.00794679
0.0114477
0.0141776
0.0151756
0.0132967
0.000634488
-0.000222838
0.000262949
0.00174876
0.00417733
0.00733002
0.0106803
0.01334
0.0144258
0.0128708
0.000163451
-0.000501082
1.47709e-05
0.00144694
0.00373672
0.00667352
0.00978262
0.0123145
0.0135061
0.0124398
-7.24732e-06
-0.000360845
0.000217214
0.00159624
0.00374087
0.00646042
0.00933063
0.0116984
0.0129247
0.0123195
0.000242968
-0.00013218
0.000444685
0.00172876
0.00370516
0.00623584
0.00895508
0.0113043
0.0125772
0.0117887
0.000730768
8.22698e-06
0.00053782
0.00181963
0.00382111
0.00641426
0.00924209
0.0116561
0.0128815
0.0115024
0.00150995
0.000521771
0.00101091
0.00229247
0.00433551
0.00701626
0.00998822
0.0124681
0.0135852
0.0116719
0.00214528
0.000997013
0.00145369
0.00273299
0.00480982
0.00757024
0.0106393
0.0131605
0.014192
0.0119328
0.00249103
0.00127151
0.00171096
0.00298759
0.00508036
0.00788251
0.0109984
0.0135388
0.0145286
0.0121152
0.00249073
0.00127125
0.00171074
0.00298742
0.00508023
0.00788241
0.0109983
0.0135387
0.0145285
0.0121152
0.00214436
0.000996198
0.00145303
0.00273248
0.00480943
0.00756995
0.0106391
0.0131603
0.0141919
0.0119327
0.00150825
0.000520324
0.00100979
0.00229164
0.00433489
0.00701581
0.00998788
0.0124678
0.013585
0.0116718
0.000728046
6.06489e-06
0.000536249
0.00181852
0.00382031
0.00641368
0.00924166
0.0116558
0.0128813
0.0115022
0.00023903
-0.00013498
0.000442797
0.00172747
0.00370425
0.00623519
0.00895459
0.0113039
0.0125769
0.0117884
-0.000980092
-0.00148256
-0.000924584
0.000337844
0.00234243
0.00505502
0.00818791
0.011149
0.0129617
0.0119953
-0.000216229
-0.00119603
-0.000690959
0.000563048
0.00258369
0.00536343
0.00862559
0.0116853
0.0134309
0.0114857
0.000916739
-0.000435249
6.62998e-06
0.00122712
0.00325251
0.0060984
0.00951583
0.0126706
0.0142903
0.0115527
0.0018001
0.000224666
0.000613179
0.00180009
0.00382764
0.00673905
0.0102427
0.0134512
0.0149721
0.0117412
0.0022661
0.000591298
0.000950459
0.00211665
0.00414132
0.00708086
0.0106272
0.01386
0.0153336
0.0118902
0.00226586
0.000591082
0.000950279
0.00211651
0.00414121
0.00708078
0.0106271
0.01386
0.0153336
0.0118902
0.00179937
0.000224006
0.000612637
0.00179966
0.00382731
0.00673881
0.0102426
0.0134511
0.014972
0.0117412
0.000915472
-0.000436369
5.72713e-06
0.00122642
0.00325198
0.00609801
0.00951555
0.0126704
0.0142901
0.0115526
-0.000218062
-0.0011976
-0.000692188
0.000562123
0.002583
0.00536293
0.00862521
0.0116851
0.0134307
0.0114855
-0.000982388
-0.00148446
-0.000926024
0.000336775
0.00234164
0.00505443
0.00818748
0.0111487
0.0129615
0.0119951
-0.00395778
-0.00457
-0.00400786
-0.00273943
-0.000637044
0.00245289
0.00645038
0.0107513
0.0139518
0.0132489
-0.002886
-0.00412283
-0.00362153
-0.00235842
-0.000229091
0.00296371
0.00714792
0.011694
0.0148326
0.0126613
-0.00133971
-0.0030685
-0.0026728
-0.0015031
0.000566495
0.0037976
0.00811837
0.0128479
0.0159088
0.01271
-0.000157309
-0.00218175
-0.00187837
-0.000799103
0.00119799
0.00438278
0.00883307
0.0136791
0.016673
0.0128763
0.000456642
-0.00169893
-0.001447
-0.000420986
0.00153635
0.00472056
0.00919606
0.0140891
0.0170516
0.0130069
0.00045646
-0.0016991
-0.00144713
-0.000421094
0.00153627
0.0047205
0.00919601
0.014089
0.0170516
0.0130068
-0.000157856
-0.00218225
-0.00187879
-0.000799437
0.00119773
0.00438258
0.00883293
0.0136789
0.0166729
0.0128762
-0.00134062
-0.00306933
-0.0026735
-0.00150365
0.000566071
0.00379728
0.00811813
0.0128477
0.0159086
0.0127099
-0.00288725
-0.00412395
-0.00362245
-0.00235914
-0.000229645
0.00296329
0.00714761
0.0116937
0.0148323
0.0126611
-0.00395924
-0.0045713
-0.00400892
-0.00274026
-0.000637673
0.00245242
0.00645005
0.0107511
0.0139516
0.0132487
-0.00935601
-0.0099403
-0.00929991
-0.00803989
-0.00591109
-0.00242406
0.00282698
0.00956037
0.0157289
0.0167761
-0.00792601
-0.00931233
-0.00876343
-0.00753749
-0.00540445
-0.00181269
0.00369517
0.0108722
0.0170911
0.0164972
-0.00592878
-0.00795055
-0.00760638
-0.00662947
-0.00476064
-0.00133124
0.00418516
0.0116971
0.0181113
0.0166682
-0.00442873
-0.00682975
-0.00665864
-0.00590219
-0.00426362
-0.000969489
0.00451066
0.0122187
0.0187396
0.0168796
-0.00366075
-0.00622881
-0.0061521
-0.0055173
-0.00400944
-0.000826745
0.00465198
0.0124509
0.0190221
0.0170064
-0.00366088
-0.00622893
-0.0061522
-0.00551738
-0.0040095
-0.000826791
0.00465194
0.0124508
0.019022
0.0170064
-0.00442912
-0.00683012
-0.00665894
-0.00590243
-0.00426381
-0.000969641
0.00451053
0.0122186
0.0187395
0.0168795
-0.00592942
-0.00795114
-0.00760688
-0.00662988
-0.00476096
-0.0013315
0.00418495
0.0116969
0.0181111
0.016668
-0.00792686
-0.00931311
-0.00876409
-0.00753803
-0.00540486
-0.00181301
0.00369491
0.0108719
0.0170908
0.016497
-0.00935698
-0.00994118
-0.00930066
-0.0080405
-0.00591155
-0.00242442
0.00282669
0.00956012
0.0157287
0.0167759
-0.018044
-0.0181465
-0.0171738
-0.0158978
-0.0138947
-0.0101472
-0.00330913
0.00720354
0.0189376
0.0250993
-0.016173
-0.0173419
-0.0165783
-0.0154839
-0.0136882
-0.0101809
-0.00344385
0.00760383
0.0199212
0.0254713
-0.013691
-0.0156911
-0.0153458
-0.0148402
-0.0137682
-0.0109698
-0.00464974
0.00682139
0.019978
0.0257764
-0.0118702
-0.0143529
-0.0143312
-0.0142907
-0.0137868
-0.0115264
-0.00552443
0.0061892
0.0198695
0.0259587
-0.0109536
-0.0136444
-0.013791
-0.0139928
-0.0137801
-0.0117991
-0.00595508
0.00586678
0.0197875
0.026032
-0.0109537
-0.0136445
-0.0137911
-0.0139928
-0.0137802
-0.0117991
-0.00595512
0.00586674
0.0197875
0.026032
-0.0118704
-0.0143532
-0.0143314
-0.0142909
-0.0137869
-0.0115265
-0.00552456
0.00618907
0.0198694
0.0259586
-0.0136914
-0.0156915
-0.0153462
-0.0148405
-0.0137684
-0.0109701
-0.00464995
0.0068212
0.0199778
0.0257762
-0.0161736
-0.0173425
-0.0165788
-0.0154843
-0.0136885
-0.0101812
-0.00344409
0.00760359
0.019921
0.0254711
-0.0180446
-0.0181471
-0.0171743
-0.0158983
-0.0138951
-0.0101475
-0.0033094
0.00720328
0.0189373
0.0250991
-0.0315298
-0.0295942
-0.0274748
-0.0258506
-0.0239834
-0.0201773
-0.0117081
0.00384576
0.0244354
0.042328
-0.0290021
-0.0285571
-0.0269746
-0.0259207
-0.024785
-0.0220187
-0.0146899
0.000871427
0.0226288
0.0425765
-0.0259314
-0.0265678
-0.0257729
-0.0258519
-0.0261544
-0.025023
-0.0189916
-0.00319211
0.0202458
0.0426137
-0.0237632
-0.0249918
-0.0247381
-0.0256238
-0.0269696
-0.0269713
-0.0217609
-0.00577422
0.0187173
0.042597
-0.0226985
-0.0241705
-0.0241823
-0.0254654
-0.0273184
-0.0278676
-0.0230346
-0.00694924
0.0180292
0.0425618
-0.0226986
-0.0241706
-0.0241823
-0.0254654
-0.0273185
-0.0278676
-0.0230346
-0.00694929
0.0180291
0.0425618
-0.0237633
-0.024992
-0.0247383
-0.025624
-0.0269697
-0.0269715
-0.021761
-0.00577435
0.0187172
0.0425969
-0.0259317
-0.0265681
-0.0257731
-0.0258521
-0.0261546
-0.0250232
-0.0189918
-0.00319229
0.0202456
0.0426136
-0.0290025
-0.0285575
-0.0269749
-0.025921
-0.0247853
-0.0220189
-0.0146902
0.000871187
0.0226286
0.0425763
-0.0315303
-0.0295946
-0.0274752
-0.0258509
-0.0239837
-0.0201776
-0.0117084
0.0038455
0.0244352
0.0423278
-0.0541848
-0.0443305
-0.0390972
-0.0359526
-0.0336617
-0.0296175
-0.0200778
0.00137326
0.0333687
0.0751532
-0.0503996
-0.0427469
-0.038543
-0.0367269
-0.0359377
-0.0340053
-0.0272045
-0.00726236
0.0259643
0.0753805
-0.0462983
-0.0399638
-0.0369399
-0.0369033
-0.0383012
-0.0388172
-0.0342399
-0.0144384
0.0211412
0.0763533
-0.0435634
-0.0378827
-0.0355841
-0.0366851
-0.0395561
-0.0416464
-0.0383376
-0.0183533
0.018803
0.0772733
-0.0422746
-0.0368382
-0.0348729
-0.0365028
-0.0400581
-0.0428787
-0.0401323
-0.0200124
0.0179036
0.0776803
-0.0422746
-0.0368383
-0.034873
-0.0365029
-0.0400581
-0.0428787
-0.0401323
-0.0200125
0.0179035
0.0776803
-0.0435635
-0.0378828
-0.0355842
-0.0366852
-0.0395562
-0.0416465
-0.0383377
-0.0183534
0.0188029
0.0772732
-0.0462985
-0.039964
-0.0369401
-0.0369035
-0.0383014
-0.0388174
-0.0342401
-0.0144386
0.021141
0.0763531
-0.0503999
-0.0427472
-0.0385432
-0.0367272
-0.0359379
-0.0340055
-0.0272047
-0.00726257
0.0259641
0.0753803
-0.0541851
-0.0443308
-0.0390975
-0.0359528
-0.0336619
-0.0296177
-0.020078
0.00137303
0.0333685
0.075153
-0.0868251
-0.0597114
-0.050467
-0.0436247
-0.0396705
-0.0345096
-0.0225114
0.00726862
0.0525536
0.150587
-0.0789253
-0.0562703
-0.0492662
-0.0449745
-0.0431338
-0.0406101
-0.0324099
-0.00375737
0.0454295
0.161501
-0.0727763
-0.0519294
-0.0465544
-0.0445622
-0.0454789
-0.0456672
-0.0398702
-0.00995234
0.0453856
0.169628
-0.0691718
-0.0489998
-0.0444774
-0.0438992
-0.0465364
-0.048417
-0.0437876
-0.0127222
0.0458953
0.174667
-0.0675946
-0.0476055
-0.0434422
-0.0434906
-0.046916
-0.0495756
-0.0454355
-0.0138692
0.046172
0.176806
-0.0675946
-0.0476055
-0.0434422
-0.0434906
-0.0469161
-0.0495756
-0.0454355
-0.0138693
0.046172
0.176806
-0.0691719
-0.0489999
-0.0444775
-0.0438993
-0.0465364
-0.0484171
-0.0437877
-0.0127223
0.0458952
0.174667
-0.0727764
-0.0519296
-0.0465545
-0.0445623
-0.045479
-0.0456673
-0.0398704
-0.00995249
0.0453855
0.169628
-0.0789255
-0.0562705
-0.0492664
-0.0449747
-0.043134
-0.0406103
-0.0324101
-0.00375754
0.0454293
0.161501
-0.0868253
-0.0597117
-0.0504672
-0.0436249
-0.0396707
-0.0345098
-0.0225116
0.00726844
0.0525535
0.150587
-0.197699
-0.0732079
-0.0480539
-0.0386049
-0.0331503
-0.0257903
-0.00912017
0.0347756
0.119207
0.3237
-0.185623
-0.061169
-0.0409936
-0.0357677
-0.0336412
-0.0293612
-0.0153236
0.031005
0.128785
0.357312
-0.177252
-0.0530726
-0.0352046
-0.0328483
-0.0336824
-0.031804
-0.018966
0.0301544
0.137217
0.377416
-0.172591
-0.0485663
-0.0316337
-0.0308694
-0.0335017
-0.0330719
-0.0208046
0.0298177
0.141101
0.386987
-0.170595
-0.0466193
-0.0300276
-0.0299346
-0.0333773
-0.0336322
-0.021654
0.0295735
0.142555
0.390579
-0.170595
-0.0466193
-0.0300276
-0.0299347
-0.0333773
-0.0336322
-0.021654
0.0295734
0.142555
0.390579
-0.172591
-0.0485663
-0.0316338
-0.0308695
-0.0335018
-0.033072
-0.0208047
0.0298176
0.141101
0.386987
-0.177252
-0.0530727
-0.0352047
-0.0328484
-0.0336826
-0.0318041
-0.0189661
0.0301543
0.137217
0.377416
-0.185623
-0.0611691
-0.0409937
-0.0357678
-0.0336413
-0.0293614
-0.0153237
0.0310049
0.128785
0.357311
-0.197699
-0.073208
-0.0480541
-0.0386051
-0.0331505
-0.0257905
-0.00912039
0.0347754
0.119207
0.3237
)
;

boundaryField
{
    top
    {
        type            zeroGradient;
    }
    others
    {
        type            zeroGradient;
    }
}


// ************************************************************************* //
