/*--------------------------------*- C++ -*----------------------------------*\
  =========                 |
  \\      /  F ield         | OpenFOAM: The Open Source CFD Toolbox
   \\    /   O peration     | Website:  https://openfoam.org
    \\  /    A nd           | Version:  9
     \\/     M anipulation  |
\*---------------------------------------------------------------------------*/
FoamFile
{
    format      ascii;
    class       volVectorField;
    location    "0.27";
    object      U;
}
// * * * * * * * * * * * * * * * * * * * * * * * * * * * * * * * * * * * * * //

dimensions      [0 1 -1 0 0 0 0];

internalField   nonuniform List<vector> 
1000
(
(-0.000153298 -0.000322391 0.000385407)
(-0.00186956 -0.000201643 0.00103724)
(-0.00508375 -0.000138191 0.00124181)
(-0.00818922 -0.000206286 0.00120867)
(-0.0106031 -0.000404953 0.00101021)
(-0.0116701 -0.000701574 0.000620674)
(-0.0107537 -0.00100748 4.52067e-05)
(-0.00762804 -0.00115777 -0.0005552)
(-0.00293138 -0.00095744 -0.000720605)
(-0.000165954 -0.000259691 -5.10707e-05)
(-0.000430273 -0.00098682 0.00062505)
(-0.0038876 -0.000965058 0.00203158)
(-0.010083 -0.000890871 0.0024586)
(-0.0159499 -0.00104139 0.00226868)
(-0.020346 -0.00146164 0.00164073)
(-0.0221232 -0.00209223 0.000569472)
(-0.0202106 -0.00272988 -0.000862403)
(-0.0142721 -0.00299072 -0.00213997)
(-0.00559094 -0.00246691 -0.00222311)
(-0.000420011 -0.000856216 -0.00034992)
(-0.000553814 -0.00131176 0.000467923)
(-0.0048863 -0.00160202 0.00215753)
(-0.0125897 -0.00160769 0.00267935)
(-0.0198176 -0.00174613 0.00239442)
(-0.0251607 -0.00212271 0.00151994)
(-0.0272239 -0.00269567 6.87653e-05)
(-0.0246952 -0.00324832 -0.00182893)
(-0.0171998 -0.00341247 -0.00340903)
(-0.00643144 -0.00282088 -0.00327985)
(-0.000290719 -0.00118514 -0.000558204)
(-0.00057877 -0.00102798 0.000265784)
(-0.00529734 -0.00135436 0.00201533)
(-0.0137282 -0.00138735 0.0025733)
(-0.0216186 -0.00147057 0.00225891)
(-0.0274232 -0.00170044 0.00128931)
(-0.0295987 -0.002054 -0.000324431)
(-0.0267099 -0.00237895 -0.00242674)
(-0.0183885 -0.0024485 -0.00412139)
(-0.00656153 -0.00203635 -0.00383128)
(-8.4491e-05 -0.000935795 -0.000641415)
(-0.000575453 -0.000381458 0.000150593)
(-0.00542907 -0.000517786 0.00190067)
(-0.014142 -0.00053422 0.00247253)
(-0.0222953 -0.000559977 0.0021565)
(-0.0282851 -0.000632916 0.00116294)
(-0.030504 -0.000746199 -0.000503594)
(-0.0274593 -0.00085061 -0.00267189)
(-0.0187882 -0.000868395 -0.00440134)
(-0.00652942 -0.000725978 -0.00403918)
(3.97933e-05 -0.000348047 -0.000664528)
(-0.000575453 0.000381493 0.000150594)
(-0.00542907 0.000517808 0.00190067)
(-0.014142 0.000534237 0.00247253)
(-0.0222953 0.00055999 0.0021565)
(-0.0282851 0.000632926 0.00116293)
(-0.030504 0.000746205 -0.000503595)
(-0.0274593 0.000850614 -0.00267189)
(-0.0187882 0.000868396 -0.00440134)
(-0.00652943 0.000725977 -0.00403918)
(3.97931e-05 0.000348043 -0.000664528)
(-0.000578767 0.00102801 0.000265788)
(-0.00529734 0.00135439 0.00201533)
(-0.0137282 0.00138737 0.00257331)
(-0.0216186 0.00147059 0.00225891)
(-0.0274232 0.00170045 0.00128931)
(-0.0295987 0.002054 -0.000324434)
(-0.0267099 0.00237895 -0.00242674)
(-0.0183885 0.00244851 -0.00412139)
(-0.00656153 0.00203635 -0.00383128)
(-8.44913e-05 0.00093579 -0.000641416)
(-0.000553804 0.00131179 0.000467936)
(-0.00488629 0.00160203 0.00215755)
(-0.0125897 0.00160771 0.00267936)
(-0.0198176 0.00174614 0.00239442)
(-0.0251607 0.00212272 0.00151994)
(-0.0272239 0.00269568 6.87622e-05)
(-0.0246952 0.00324832 -0.00182894)
(-0.0171998 0.00341247 -0.00340903)
(-0.00643144 0.00282088 -0.00327985)
(-0.000290719 0.00118514 -0.000558205)
(-0.000430234 0.000986803 0.000625092)
(-0.00388757 0.000965043 0.00203161)
(-0.010083 0.000890877 0.00245861)
(-0.0159499 0.00104139 0.00226868)
(-0.020346 0.00146165 0.00164073)
(-0.0221232 0.00209224 0.000569469)
(-0.0202106 0.00272989 -0.000862406)
(-0.0142721 0.00299073 -0.00213998)
(-0.00559094 0.00246691 -0.00222311)
(-0.000420011 0.000856216 -0.000349921)
(-0.000153238 0.000322338 0.000385469)
(-0.00186954 0.00020161 0.00103728)
(-0.00508378 0.000138187 0.00124181)
(-0.00818925 0.000206286 0.00120867)
(-0.0106031 0.000404955 0.00101021)
(-0.0116702 0.000701577 0.000620674)
(-0.0107537 0.00100749 4.5206e-05)
(-0.00762805 0.00115777 -0.0005552)
(-0.00293138 0.000957443 -0.000720606)
(-0.000165954 0.000259692 -5.10691e-05)
(-0.000756193 -0.000937991 0.00302266)
(-0.0044248 -0.00101364 0.00582345)
(-0.0103307 -0.000952482 0.00649942)
(-0.0159042 -0.000954234 0.00603467)
(-0.0201814 -0.00106898 0.00473472)
(-0.0221122 -0.0012964 0.00256656)
(-0.0206573 -0.00155842 -0.000351315)
(-0.0152659 -0.00161294 -0.00325249)
(-0.00676829 -0.00118513 -0.00434404)
(-0.00097277 -4.33731e-05 -0.00178589)
(-0.00201432 -0.00242473 0.00493889)
(-0.010306 -0.00293393 0.0107562)
(-0.0229403 -0.00287184 0.0121151)
(-0.0345514 -0.0028835 0.0107035)
(-0.0430468 -0.00315156 0.0072609)
(-0.0464511 -0.00366975 0.00192409)
(-0.0429096 -0.00423861 -0.00474364)
(-0.0316017 -0.00429326 -0.0106363)
(-0.0144407 -0.00324771 -0.0116497)
(-0.00239065 -0.000649867 -0.0042854)
(-0.00267615 -0.00280198 0.00498867)
(-0.0134999 -0.00376155 0.0119087)
(-0.029791 -0.00379624 0.0134926)
(-0.0445339 -0.00379851 0.0114778)
(-0.055074 -0.0040493 0.00676116)
(-0.0590205 -0.0045484 -0.000401056)
(-0.0541325 -0.0050542 -0.00912885)
(-0.0395057 -0.00502612 -0.0163869)
(-0.0177597 -0.00391773 -0.0166739)
(-0.00279344 -0.0013061 -0.00584483)
(-0.0029272 -0.00205021 0.00460466)
(-0.014915 -0.00290456 0.0117852)
(-0.0329797 -0.00296986 0.0134279)
(-0.0492214 -0.00295655 0.0111463)
(-0.0607171 -0.00310199 0.00585084)
(-0.0648566 -0.00341456 -0.00216404)
(-0.059214 -0.00370213 -0.0118346)
(-0.0428884 -0.00364316 -0.0196445)
(-0.0188889 -0.00289146 -0.0193616)
(-0.00275285 -0.00113339 -0.00660492)
(-0.00299177 -0.000737633 0.00433676)
(-0.0153949 -0.00106997 0.0115391)
(-0.034143 -0.0010999 0.0132005)
(-0.0509667 -0.00109097 0.0108416)
(-0.0628351 -0.00113394 0.0053564)
(-0.0670393 -0.00123409 -0.0029568)
(-0.061079 -0.00132269 -0.0129587)
(-0.0440658 -0.00129616 -0.0209531)
(-0.0191806 -0.00103973 -0.0204149)
(-0.00266503 -0.000437026 -0.00688548)
(-0.00299177 0.000737657 0.00433676)
(-0.0153949 0.00106998 0.0115391)
(-0.034143 0.0010999 0.0132005)
(-0.0509667 0.00109098 0.0108416)
(-0.0628351 0.00113395 0.0053564)
(-0.0670393 0.0012341 -0.0029568)
(-0.061079 0.0013227 -0.0129587)
(-0.0440658 0.00129617 -0.0209531)
(-0.0191806 0.00103973 -0.0204149)
(-0.00266503 0.000437027 -0.00688548)
(-0.0029272 0.00205024 0.00460466)
(-0.014915 0.00290456 0.0117852)
(-0.0329797 0.00296986 0.0134279)
(-0.0492214 0.00295655 0.0111463)
(-0.0607171 0.003102 0.00585084)
(-0.0648566 0.00341457 -0.00216404)
(-0.059214 0.00370214 -0.0118346)
(-0.0428884 0.00364317 -0.0196445)
(-0.0188889 0.00289147 -0.0193616)
(-0.00275285 0.00113339 -0.00660492)
(-0.00267614 0.00280199 0.00498868)
(-0.0134999 0.00376154 0.0119087)
(-0.029791 0.00379624 0.0134926)
(-0.0445339 0.00379851 0.0114778)
(-0.055074 0.00404931 0.00676115)
(-0.0590205 0.00454841 -0.000401062)
(-0.0541325 0.00505421 -0.00912885)
(-0.0395057 0.00502613 -0.0163869)
(-0.0177597 0.00391774 -0.0166739)
(-0.00279344 0.0013061 -0.00584482)
(-0.00201429 0.00242471 0.00493893)
(-0.010306 0.0029339 0.0107563)
(-0.0229403 0.00287184 0.0121151)
(-0.0345514 0.0028835 0.0107035)
(-0.0430468 0.00315157 0.00726089)
(-0.0464511 0.00366976 0.00192409)
(-0.0429096 0.00423862 -0.00474365)
(-0.0316017 0.00429327 -0.0106363)
(-0.0144407 0.00324771 -0.0116497)
(-0.00239065 0.000649868 -0.0042854)
(-0.000756159 0.000937958 0.00302269)
(-0.00442478 0.00101361 0.00582347)
(-0.0103307 0.000952473 0.00649942)
(-0.0159042 0.000954234 0.00603467)
(-0.0201814 0.00106898 0.00473471)
(-0.0221122 0.0012964 0.00256656)
(-0.0206573 0.00155843 -0.000351314)
(-0.0152659 0.00161295 -0.00325248)
(-0.0067683 0.00118513 -0.00434404)
(-0.000972771 4.33739e-05 -0.00178588)
(-0.00120176 -0.00150083 0.00836982)
(-0.0062583 -0.00173517 0.014564)
(-0.0139947 -0.00165777 0.0157706)
(-0.0212789 -0.00157689 0.0144208)
(-0.0271528 -0.00159601 0.0112064)
(-0.0304173 -0.00175803 0.00605844)
(-0.0295547 -0.00200077 -0.000857575)
(-0.0231918 -0.00205122 -0.00800229)
(-0.0115153 -0.00148627 -0.0114785)
(-0.00221334 0.000120639 -0.00634847)
(-0.00327666 -0.00374022 0.0137252)
(-0.0152788 -0.0046831 0.0263278)
(-0.0326512 -0.00456278 0.0286551)
(-0.0485059 -0.00434005 0.0249022)
(-0.0605711 -0.00433943 0.0167004)
(-0.0664983 -0.00464512 0.00434526)
(-0.0635381 -0.00510434 -0.0110919)
(-0.0493993 -0.00510607 -0.0254508)
(-0.0249503 -0.00381772 -0.0296311)
(-0.00508999 -0.000405791 -0.014019)
(-0.00443114 -0.00415121 0.0147166)
(-0.0204079 -0.00564635 0.0296313)
(-0.0432282 -0.00559635 0.0322114)
(-0.0636769 -0.00529297 0.0269144)
(-0.0788058 -0.00519119 0.0157202)
(-0.0857566 -0.00538048 -0.000818542)
(-0.0812207 -0.0056717 -0.0208948)
(-0.0625329 -0.0055461 -0.0386076)
(-0.031175 -0.00430349 -0.0417261)
(-0.00614639 -0.00117774 -0.0185532)
(-0.00490269 -0.00295228 0.0144744)
(-0.0227427 -0.0042086 0.0299853)
(-0.0482244 -0.00420441 0.0325775)
(-0.0708732 -0.00394898 0.0265567)
(-0.0874249 -0.00381338 0.0139771)
(-0.0947523 -0.00386803 -0.00448569)
(-0.0892949 -0.00395478 -0.0267497)
(-0.0682816 -0.00381387 -0.045884)
(-0.0335509 -0.0030285 -0.0480909)
(-0.00634391 -0.00105512 -0.0208018)
(-0.00503744 -0.00104588 0.0141764)
(-0.0235451 -0.00152316 0.0297744)
(-0.0500454 -0.00152656 0.0323637)
(-0.0735387 -0.00142717 0.0261098)
(-0.0906355 -0.00136462 0.0130567)
(-0.0980929 -0.00136564 -0.00609146)
(-0.0922529 -0.00137624 -0.0291218)
(-0.0703175 -0.00131973 -0.048751)
(-0.0342838 -0.00106281 -0.0505581)
(-0.00633116 -0.000410309 -0.0216487)
(-0.00503744 0.0010459 0.0141764)
(-0.0235451 0.00152316 0.0297744)
(-0.0500454 0.00152656 0.0323637)
(-0.0735387 0.00142718 0.0261098)
(-0.0906355 0.00136462 0.0130567)
(-0.0980929 0.00136565 -0.00609146)
(-0.0922529 0.00137625 -0.0291218)
(-0.0703175 0.00131973 -0.048751)
(-0.0342838 0.00106281 -0.0505581)
(-0.00633116 0.000410311 -0.0216487)
(-0.00490268 0.0029523 0.0144744)
(-0.0227427 0.0042086 0.0299853)
(-0.0482244 0.0042044 0.0325776)
(-0.0708732 0.00394898 0.0265567)
(-0.0874249 0.00381338 0.0139771)
(-0.0947523 0.00386804 -0.00448569)
(-0.0892949 0.00395478 -0.0267497)
(-0.0682816 0.00381388 -0.045884)
(-0.0335509 0.0030285 -0.0480909)
(-0.00634391 0.00105512 -0.0208017)
(-0.00443113 0.00415123 0.0147166)
(-0.0204079 0.00564634 0.0296313)
(-0.0432282 0.00559635 0.0322114)
(-0.0636769 0.00529297 0.0269144)
(-0.0788058 0.00519119 0.0157202)
(-0.0857566 0.00538048 -0.000818547)
(-0.0812207 0.00567171 -0.0208948)
(-0.0625329 0.0055461 -0.0386076)
(-0.031175 0.00430349 -0.0417261)
(-0.00614639 0.00117774 -0.0185532)
(-0.00327665 0.00374022 0.0137252)
(-0.0152788 0.00468309 0.0263278)
(-0.0326512 0.00456278 0.0286551)
(-0.0485059 0.00434005 0.0249022)
(-0.0605711 0.00433944 0.0167004)
(-0.0664983 0.00464512 0.00434525)
(-0.0635381 0.00510435 -0.0110919)
(-0.0493993 0.00510607 -0.0254508)
(-0.0249503 0.00381772 -0.0296311)
(-0.00508999 0.00040579 -0.014019)
(-0.00120176 0.00150082 0.00836981)
(-0.0062583 0.00173516 0.014564)
(-0.0139948 0.00165777 0.0157706)
(-0.0212789 0.00157689 0.0144208)
(-0.0271528 0.00159601 0.0112064)
(-0.0304173 0.00175803 0.00605844)
(-0.0295547 0.00200077 -0.000857573)
(-0.0231918 0.00205122 -0.00800229)
(-0.0115153 0.00148626 -0.0114785)
(-0.00221334 -0.000120641 -0.00634846)
(-0.00167996 -0.00209923 0.0155834)
(-0.0080607 -0.00245709 0.0259187)
(-0.0174388 -0.00230378 0.027616)
(-0.0263714 -0.00206764 0.0252831)
(-0.0342233 -0.00190903 0.0201059)
(-0.0398475 -0.00192861 0.0117105)
(-0.041106 -0.00212009 -0.000218039)
(-0.0350692 -0.00229409 -0.0137393)
(-0.0200797 -0.00181532 -0.0221535)
(-0.00497714 0.00012702 -0.0146026)
(-0.00454312 -0.0051414 0.0255058)
(-0.0200473 -0.00643332 0.0463811)
(-0.0417772 -0.00608167 0.0496053)
(-0.0617841 -0.00537994 0.0431746)
(-0.078204 -0.00479837 0.0297927)
(-0.0885984 -0.00455647 0.00940089)
(-0.0890103 -0.00464302 -0.0173495)
(-0.0743644 -0.00478668 -0.0446947)
(-0.0424709 -0.00391926 -0.0566731)
(-0.0105017 -0.000335652 -0.0314096)
(-0.00615227 -0.00559054 0.0278362)
(-0.0269659 -0.00752304 0.0525094)
(-0.0558231 -0.0071575 0.0560019)
(-0.0818713 -0.0061924 0.0469981)
(-0.102561 -0.0052455 0.0287663)
(-0.11479 -0.0045499 0.00153003)
(-0.113818 -0.00425064 -0.0331123)
(-0.0937849 -0.00418874 -0.0669449)
(-0.0528162 -0.00366171 -0.0785715)
(-0.0126724 -0.00101076 -0.0408027)
(-0.00681372 -0.00391046 0.0279226)
(-0.0301145 -0.00548902 0.0536429)
(-0.0624416 -0.00523231 0.0571182)
(-0.0913442 -0.0044482 0.0469433)
(-0.113936 -0.00362572 0.0265133)
(-0.126903 -0.00294119 -0.00383865)
(-0.125054 -0.00256526 -0.0420041)
(-0.102185 -0.00246466 -0.0785695)
(-0.056908 -0.00228113 -0.0895124)
(-0.0133212 -0.000867364 -0.0452912)
(-0.00700199 -0.001372 0.0276803)
(-0.0311821 -0.00196391 0.0536045)
(-0.0648187 -0.00187293 0.0570786)
(-0.0948019 -0.00157743 0.0465489)
(-0.11812 -0.00126359 0.0254154)
(-0.131335 -0.0010013 -0.00596031)
(-0.129105 -0.000825938 -0.0453705)
(-0.105155 -0.000782079 -0.0829096)
(-0.0582692 -0.000751228 -0.0935731)
(-0.013479 -0.000329043 -0.0469346)
(-0.00700199 0.00137202 0.0276803)
(-0.0311821 0.00196391 0.0536045)
(-0.0648187 0.00187293 0.0570786)
(-0.0948019 0.00157743 0.0465489)
(-0.11812 0.00126358 0.0254154)
(-0.131335 0.0010013 -0.00596031)
(-0.129105 0.000825939 -0.0453705)
(-0.105155 0.000782082 -0.0829096)
(-0.0582692 0.000751232 -0.0935731)
(-0.013479 0.000329046 -0.0469346)
(-0.00681371 0.00391047 0.0279226)
(-0.0301145 0.00548902 0.0536429)
(-0.0624416 0.0052323 0.0571182)
(-0.0913442 0.0044482 0.0469433)
(-0.113936 0.00362572 0.0265133)
(-0.126903 0.00294119 -0.00383865)
(-0.125054 0.00256526 -0.0420041)
(-0.102185 0.00246466 -0.0785695)
(-0.056908 0.00228113 -0.0895124)
(-0.0133212 0.000867368 -0.0452912)
(-0.00615227 0.00559055 0.0278362)
(-0.0269659 0.00752304 0.0525094)
(-0.0558231 0.00715749 0.0560019)
(-0.0818713 0.0061924 0.0469981)
(-0.102561 0.0052455 0.0287663)
(-0.11479 0.0045499 0.00153003)
(-0.113818 0.00425064 -0.0331123)
(-0.0937849 0.00418874 -0.0669449)
(-0.0528162 0.00366171 -0.0785715)
(-0.0126724 0.00101077 -0.0408027)
(-0.00454311 0.00514141 0.0255057)
(-0.0200473 0.00643331 0.0463811)
(-0.0417772 0.00608167 0.0496053)
(-0.0617841 0.00537995 0.0431746)
(-0.078204 0.00479837 0.0297927)
(-0.0885984 0.00455647 0.00940089)
(-0.0890103 0.00464302 -0.0173495)
(-0.0743644 0.00478668 -0.0446946)
(-0.0424709 0.00391926 -0.056673)
(-0.0105017 0.000335653 -0.0314096)
(-0.00167996 0.00209922 0.0155833)
(-0.0080607 0.00245708 0.0259187)
(-0.0174388 0.00230378 0.027616)
(-0.0263714 0.00206764 0.0252831)
(-0.0342233 0.00190903 0.0201059)
(-0.0398475 0.00192861 0.0117105)
(-0.0411061 0.00212009 -0.000218035)
(-0.0350692 0.00229409 -0.0137393)
(-0.0200797 0.00181532 -0.0221535)
(-0.00497713 -0.000127021 -0.0146026)
(-0.0024811 -0.00277061 0.0251248)
(-0.0104068 -0.00318138 0.0400736)
(-0.0211641 -0.00278581 0.0419511)
(-0.031456 -0.00214432 0.0385033)
(-0.0414614 -0.00147526 0.0314856)
(-0.0505387 -0.000956384 0.0197947)
(-0.0560019 -0.000786242 0.00178527)
(-0.052672 -0.00117024 -0.0210846)
(-0.0354036 -0.00140705 -0.038853)
(-0.0109171 -0.000104988 -0.0302841)
(-0.00628253 -0.00666947 0.0408099)
(-0.0255903 -0.00813966 0.0711286)
(-0.0513001 -0.00712911 0.0749659)
(-0.0750293 -0.00526691 0.065761)
(-0.0960725 -0.00315736 0.0473853)
(-0.1125 -0.0012321 0.0185894)
(-0.119245 -4.32537e-05 -0.0219944)
(-0.107667 -0.00050109 -0.0684392)
(-0.0706466 -0.00176366 -0.0967927)
(-0.0210494 -0.000542679 -0.0632597)
(-0.00833746 -0.00711441 0.0448236)
(-0.0342111 -0.00929763 0.0807248)
(-0.0686009 -0.00811807 0.085003)
(-0.0996604 -0.0056775 0.0724231)
(-0.125998 -0.00277939 0.0476136)
(-0.144833 2.56602e-05 0.0094409)
(-0.15019 0.00198764 -0.0427279)
(-0.132589 0.00171016 -0.100006)
(-0.0854654 -0.000418988 -0.130777)
(-0.0248593 -0.000825907 -0.0803986)
(-0.00914945 -0.00490437 0.0453802)
(-0.0380311 -0.00667089 0.0829122)
(-0.0765749 -0.0058035 0.087282)
(-0.111031 -0.00390559 0.0733057)
(-0.139651 -0.00161646 0.0457771)
(-0.159181 0.000627256 0.00359207)
(-0.163361 0.00216456 -0.0534056)
(-0.142633 0.00196264 -0.115125)
(-0.0911261 0.000207879 -0.146474)
(-0.0261983 -0.000589149 -0.0880804)
(-0.00936436 -0.00170639 0.0452579)
(-0.0392706 -0.00236498 0.083168)
(-0.079334 -0.00205265 0.0876152)
(-0.115021 -0.00135241 0.073286)
(-0.144446 -0.000500784 0.0449774)
(-0.164247 0.00034162 0.00155612)
(-0.167998 0.000883583 -0.0570732)
(-0.146119 0.000800898 -0.120377)
(-0.0930946 0.000148092 -0.152004)
(-0.0266567 -0.000201742 -0.0907962)
(-0.00936436 0.00170641 0.0452579)
(-0.0392706 0.00236498 0.083168)
(-0.079334 0.00205265 0.0876152)
(-0.115021 0.00135241 0.073286)
(-0.144446 0.000500777 0.0449774)
(-0.164247 -0.000341626 0.00155612)
(-0.167998 -0.000883584 -0.0570732)
(-0.146119 -0.000800896 -0.120377)
(-0.0930946 -0.000148085 -0.152004)
(-0.0266567 0.000201747 -0.0907962)
(-0.00914945 0.00490438 0.0453802)
(-0.038031 0.00667089 0.0829122)
(-0.0765749 0.00580349 0.087282)
(-0.111031 0.00390558 0.0733057)
(-0.139651 0.00161646 0.0457771)
(-0.159181 -0.00062726 0.00359207)
(-0.163361 -0.00216456 -0.0534056)
(-0.142633 -0.00196263 -0.115125)
(-0.0911261 -0.000207872 -0.146474)
(-0.0261983 0.000589153 -0.0880804)
(-0.00833746 0.00711441 0.0448236)
(-0.0342111 0.00929762 0.0807248)
(-0.0686009 0.00811807 0.085003)
(-0.0996604 0.0056775 0.0724231)
(-0.125998 0.00277939 0.0476136)
(-0.144833 -2.56605e-05 0.0094409)
(-0.15019 -0.00198764 -0.0427279)
(-0.132589 -0.00171015 -0.100006)
(-0.0854654 0.000418993 -0.130777)
(-0.0248593 0.00082591 -0.0803986)
(-0.00628253 0.00666947 0.0408099)
(-0.0255903 0.00813966 0.0711286)
(-0.0513001 0.00712911 0.0749659)
(-0.0750293 0.00526691 0.065761)
(-0.0960725 0.00315736 0.0473853)
(-0.1125 0.0012321 0.0185894)
(-0.119245 4.32572e-05 -0.0219944)
(-0.107667 0.000501094 -0.0684392)
(-0.0706466 0.00176366 -0.0967927)
(-0.0210494 0.000542682 -0.0632597)
(-0.0024811 0.00277061 0.0251248)
(-0.0104068 0.00318138 0.0400736)
(-0.0211641 0.00278581 0.0419511)
(-0.031456 0.00214432 0.0385033)
(-0.0414614 0.00147526 0.0314856)
(-0.0505387 0.000956383 0.0197947)
(-0.0560019 0.000786242 0.00178527)
(-0.052672 0.00117024 -0.0210846)
(-0.0354036 0.00140705 -0.038853)
(-0.0109171 0.000104991 -0.0302841)
(-0.00414669 -0.00355124 0.0379425)
(-0.0140586 -0.00383977 0.056875)
(-0.0251503 -0.00283438 0.0576737)
(-0.0353808 -0.00125485 0.0524012)
(-0.0465049 0.000643785 0.0434077)
(-0.0592472 0.002605 0.0284754)
(-0.071087 0.00392092 0.00370996)
(-0.0743249 0.00337508 -0.0315266)
(-0.0586016 0.00116717 -0.0645432)
(-0.0213771 -0.000471501 -0.059441)
(-0.00917723 -0.00834751 0.0607135)
(-0.0326617 -0.00960284 0.100302)
(-0.0605133 -0.00707575 0.103408)
(-0.0851271 -0.00275551 0.0909183)
(-0.108029 0.00262664 0.0679171)
(-0.129132 0.00827658 0.0312054)
(-0.143632 0.0122422 -0.0242163)
(-0.139921 0.0111793 -0.0951664)
(-0.105409 0.00472604 -0.151399)
(-0.0367026 -0.00115986 -0.119024)
(-0.0116162 -0.00869145 0.0666288)
(-0.0426165 -0.0107467 0.113883)
(-0.0801533 -0.0078678 0.117945)
(-0.112468 -0.00258326 0.101825)
(-0.140361 0.00406304 0.0715367)
(-0.162866 0.0109031 0.023748)
(-0.174568 0.0154935 -0.0462554)
(-0.163917 0.014045 -0.132584)
(-0.120692 0.00620008 -0.196505)
(-0.0413647 -0.000957309 -0.147002)
(-0.0124862 -0.00589431 0.0676939)
(-0.0467534 -0.00760371 0.117293)
(-0.0887445 -0.00554196 0.121809)
(-0.124426 -0.00162647 0.104471)
(-0.154168 0.00328951 0.0715017)
(-0.176554 0.00825407 0.0194746)
(-0.186164 0.0114059 -0.056255)
(-0.172088 0.0101504 -0.148685)
(-0.125876 0.00448811 -0.215548)
(-0.0431089 -0.000495429 -0.158727)
(-0.0126761 -0.00203259 0.0677043)
(-0.0479747 -0.00267565 0.117902)
(-0.0915069 -0.00194565 0.122689)
(-0.128341 -0.000539297 0.105177)
(-0.158694 0.00122031 0.0715725)
(-0.181025 0.00297722 0.0183309)
(-0.189948 0.00404738 -0.0592481)
(-0.174829 0.00356058 -0.153919)
(-0.127836 0.00157537 -0.222043)
(-0.0438498 -0.000133202 -0.162825)
(-0.0126761 0.00203259 0.0677043)
(-0.0479747 0.00267565 0.117902)
(-0.0915069 0.00194564 0.122689)
(-0.128341 0.000539288 0.105177)
(-0.158694 -0.00122032 0.0715725)
(-0.181025 -0.00297723 0.0183309)
(-0.189948 -0.00404738 -0.0592481)
(-0.174829 -0.00356058 -0.153919)
(-0.127836 -0.00157537 -0.222043)
(-0.0438498 0.000133208 -0.162825)
(-0.0124862 0.00589431 0.0676939)
(-0.0467534 0.0076037 0.117293)
(-0.0887445 0.00554195 0.121809)
(-0.124426 0.00162647 0.104471)
(-0.154168 -0.00328951 0.0715017)
(-0.176554 -0.00825407 0.0194746)
(-0.186164 -0.0114059 -0.056255)
(-0.172088 -0.0101504 -0.148685)
(-0.125876 -0.0044881 -0.215548)
(-0.0431089 0.000495434 -0.158727)
(-0.0116162 0.00869146 0.0666288)
(-0.0426165 0.0107467 0.113883)
(-0.0801533 0.00786779 0.117945)
(-0.112468 0.00258325 0.101825)
(-0.140361 -0.00406304 0.0715367)
(-0.162866 -0.0109031 0.023748)
(-0.174568 -0.0154935 -0.0462554)
(-0.163917 -0.014045 -0.132584)
(-0.120692 -0.00620008 -0.196505)
(-0.0413647 0.000957313 -0.147002)
(-0.00917723 0.00834751 0.0607135)
(-0.0326617 0.00960284 0.100302)
(-0.0605133 0.00707575 0.103408)
(-0.0851271 0.00275551 0.0909183)
(-0.108029 -0.00262664 0.0679171)
(-0.129132 -0.00827657 0.0312054)
(-0.143632 -0.0122422 -0.0242163)
(-0.139921 -0.0111793 -0.0951664)
(-0.105409 -0.00472604 -0.151399)
(-0.0367026 0.00115986 -0.119024)
(-0.00414669 0.00355124 0.0379425)
(-0.0140586 0.00383977 0.0568749)
(-0.0251504 0.00283438 0.0576737)
(-0.0353808 0.00125485 0.0524012)
(-0.0465049 -0.000643785 0.0434077)
(-0.0592472 -0.002605 0.0284754)
(-0.071087 -0.00392092 0.00370997)
(-0.0743249 -0.00337508 -0.0315266)
(-0.0586016 -0.00116717 -0.0645432)
(-0.0213771 0.000471502 -0.059441)
(-0.0080673 -0.00459494 0.0565103)
(-0.0207289 -0.00452304 0.0753407)
(-0.0288273 -0.0023673 0.0718101)
(-0.0350894 0.000815239 0.0627112)
(-0.0437498 0.00469546 0.0509777)
(-0.0578883 0.00897807 0.0330927)
(-0.0766913 0.0123366 0.0024941)
(-0.0907636 0.0118663 -0.0464723)
(-0.0847723 0.00636496 -0.100502)
(-0.0349311 -0.00106693 -0.110169)
(-0.0149318 -0.0104013 0.087773)
(-0.0427836 -0.0109206 0.13222)
(-0.0669463 -0.00574486 0.130521)
(-0.084532 0.00239153 0.112857)
(-0.100803 0.0124975 0.0855335)
(-0.119183 0.0233661 0.0434037)
(-0.137972 0.0312661 -0.0228745)
(-0.145298 0.0292361 -0.118279)
(-0.127436 0.0145325 -0.21294)
(-0.0492527 -0.00323199 -0.206689)
(-0.0176243 -0.0104523 0.0954139)
(-0.053145 -0.011947 0.149743)
(-0.0867114 -0.0063959 0.149823)
(-0.110378 0.00286561 0.129067)
(-0.128718 0.0143547 0.09486)
(-0.144641 0.0261211 0.0417965)
(-0.156925 0.033639 -0.03951)
(-0.155545 0.0299608 -0.153041)
(-0.133182 0.0136998 -0.262265)
(-0.0509373 -0.00284578 -0.245742)
(-0.0183999 -0.00693545 0.096752)
(-0.0569249 -0.00834048 0.154148)
(-0.0945342 -0.00452828 0.155282)
(-0.12061 0.00203267 0.133954)
(-0.139253 0.0101403 0.0977162)
(-0.153157 0.0181865 0.0409471)
(-0.161748 0.0228525 -0.0458164)
(-0.156671 0.0196775 -0.166394)
(-0.134201 0.00860438 -0.281497)
(-0.0518644 -0.00158142 -0.261241)
(-0.0184924 -0.00236484 0.0967843)
(-0.0578222 -0.00291592 0.154971)
(-0.0966852 -0.00159574 0.156649)
(-0.123485 0.000706624 0.135483)
(-0.142162 0.00353771 0.0989555)
(-0.155388 0.00630208 0.0412358)
(-0.162922 0.00781877 -0.0473358)
(-0.157051 0.0066193 -0.170661)
(-0.135128 0.00284824 -0.288175)
(-0.0526016 -0.000457325 -0.266786)
(-0.0184924 0.00236484 0.0967843)
(-0.0578222 0.00291592 0.154971)
(-0.0966852 0.00159573 0.156649)
(-0.123485 -0.000706636 0.135483)
(-0.142162 -0.00353772 0.0989555)
(-0.155388 -0.00630209 0.0412358)
(-0.162922 -0.00781877 -0.0473358)
(-0.157051 -0.0066193 -0.170661)
(-0.135128 -0.00284823 -0.288175)
(-0.0526016 0.000457333 -0.266786)
(-0.0183999 0.00693545 0.096752)
(-0.0569249 0.00834047 0.154148)
(-0.0945342 0.00452827 0.155282)
(-0.12061 -0.00203269 0.133954)
(-0.139253 -0.0101403 0.0977162)
(-0.153157 -0.0181866 0.0409471)
(-0.161748 -0.0228525 -0.0458164)
(-0.156671 -0.0196775 -0.166394)
(-0.134201 -0.00860437 -0.281497)
(-0.0518644 0.00158143 -0.261241)
(-0.0176243 0.0104523 0.0954139)
(-0.053145 0.011947 0.149743)
(-0.0867114 0.0063959 0.149823)
(-0.110378 -0.00286562 0.129067)
(-0.128718 -0.0143547 0.09486)
(-0.144641 -0.0261211 0.0417965)
(-0.156925 -0.033639 -0.0395099)
(-0.155545 -0.0299608 -0.153041)
(-0.133182 -0.0136998 -0.262265)
(-0.0509373 0.00284579 -0.245742)
(-0.0149318 0.0104013 0.087773)
(-0.0427836 0.0109206 0.13222)
(-0.0669463 0.00574486 0.130521)
(-0.084532 -0.00239153 0.112857)
(-0.100803 -0.0124975 0.0855335)
(-0.119183 -0.0233661 0.0434037)
(-0.137972 -0.0312661 -0.0228745)
(-0.145298 -0.0292361 -0.118279)
(-0.127436 -0.0145325 -0.21294)
(-0.0492526 0.00323199 -0.206689)
(-0.0080673 0.00459494 0.0565103)
(-0.0207289 0.00452304 0.0753406)
(-0.0288273 0.0023673 0.0718101)
(-0.0350894 -0.00081524 0.0627112)
(-0.0437498 -0.00469546 0.0509777)
(-0.0578883 -0.00897807 0.0330927)
(-0.0766913 -0.0123366 0.0024941)
(-0.0907636 -0.0118663 -0.0464723)
(-0.0847723 -0.00636496 -0.100502)
(-0.0349311 0.00106693 -0.110169)
(-0.0172859 -0.00641582 0.0817286)
(-0.0325844 -0.00598751 0.0910673)
(-0.0271086 -0.00247914 0.0788038)
(-0.020823 0.00253923 0.0630742)
(-0.0196225 0.00836607 0.0478681)
(-0.0286374 0.0149242 0.0282703)
(-0.0510976 0.0206739 -0.00525033)
(-0.0777583 0.0206202 -0.0652869)
(-0.0957147 0.0108394 -0.143112)
(-0.0413218 -0.00481984 -0.188727)
(-0.0278597 -0.0137284 0.120377)
(-0.0593498 -0.0136333 0.159583)
(-0.0624886 -0.0057102 0.147571)
(-0.0562308 0.00603075 0.12155)
(-0.0502965 0.0199539 0.0906645)
(-0.0512544 0.035 0.0487799)
(-0.0643302 0.0469554 -0.0175201)
(-0.0805351 0.0448048 -0.12648)
(-0.100921 0.0209552 -0.260859)
(-0.0372078 -0.0112948 -0.315803)
(-0.0310279 -0.0131221 0.12857)
(-0.0697264 -0.0144286 0.180331)
(-0.0797734 -0.00652698 0.171233)
(-0.0751296 0.00576975 0.143019)
(-0.0658435 0.0204872 0.106818)
(-0.0582587 0.0355209 0.0562986)
(-0.0595875 0.045797 -0.021908)
(-0.064128 0.0409082 -0.147983)
(-0.0858989 0.0165319 -0.302442)
(-0.0301861 -0.00930937 -0.356976)
(-0.0316704 -0.00844211 0.12973)
(-0.0726721 -0.00986138 0.185302)
(-0.0855248 -0.0046988 0.178018)
(-0.0815395 0.00359614 0.150072)
(-0.0706055 0.0135622 0.112832)
(-0.0588943 0.0234468 0.0597286)
(-0.0550076 0.0295503 -0.0226446)
(-0.0554953 0.0253574 -0.155429)
(-0.0804387 0.00964989 -0.317742)
(-0.0290637 -0.00515175 -0.372396)
(-0.0316342 -0.00283267 0.129649)
(-0.0730253 -0.0034125 0.186114)
(-0.086566 -0.00167076 0.179646)
(-0.0826918 0.00117134 0.152209)
(-0.0711983 0.00458242 0.115046)
(-0.0582268 0.00792127 0.0613387)
(-0.0530228 0.0098787 -0.0225288)
(-0.0530131 0.0083265 -0.158077)
(-0.0799266 0.00312071 -0.323425)
(-0.0295465 -0.00153098 -0.378093)
(-0.0316342 0.00283267 0.129649)
(-0.0730253 0.0034125 0.186114)
(-0.086566 0.00167075 0.179646)
(-0.0826918 -0.00117136 0.152209)
(-0.0711983 -0.00458243 0.115046)
(-0.0582268 -0.00792127 0.0613387)
(-0.0530228 -0.0098787 -0.0225288)
(-0.0530131 -0.00832649 -0.158077)
(-0.0799266 -0.00312071 -0.323425)
(-0.0295465 0.00153099 -0.378093)
(-0.0316704 0.00844211 0.12973)
(-0.0726721 0.00986138 0.185302)
(-0.0855248 0.00469879 0.178018)
(-0.0815395 -0.00359615 0.150072)
(-0.0706055 -0.0135622 0.112832)
(-0.0588943 -0.0234468 0.0597286)
(-0.0550076 -0.0295503 -0.0226446)
(-0.0554953 -0.0253573 -0.155429)
(-0.0804387 -0.00964988 -0.317742)
(-0.0290637 0.00515176 -0.372396)
(-0.0310279 0.0131221 0.12857)
(-0.0697264 0.0144286 0.180331)
(-0.0797734 0.00652697 0.171233)
(-0.0751297 -0.00576976 0.143019)
(-0.0658435 -0.0204872 0.106818)
(-0.0582587 -0.0355209 0.0562986)
(-0.0595875 -0.045797 -0.021908)
(-0.064128 -0.0409082 -0.147983)
(-0.0858989 -0.0165319 -0.302442)
(-0.0301861 0.00930938 -0.356976)
(-0.0278597 0.0137284 0.120377)
(-0.0593498 0.0136333 0.159583)
(-0.0624886 0.0057102 0.147571)
(-0.0562308 -0.00603075 0.12155)
(-0.0502965 -0.0199539 0.0906645)
(-0.0512544 -0.035 0.0487799)
(-0.0643302 -0.0469554 -0.0175201)
(-0.0805351 -0.0448048 -0.12648)
(-0.100921 -0.0209552 -0.260859)
(-0.0372078 0.0112948 -0.315803)
(-0.0172859 0.00641582 0.0817286)
(-0.0325844 0.00598751 0.0910673)
(-0.0271086 0.00247914 0.0788037)
(-0.020823 -0.00253923 0.0630742)
(-0.0196225 -0.00836607 0.0478681)
(-0.0286374 -0.0149242 0.0282703)
(-0.0510976 -0.0206739 -0.00525032)
(-0.0777583 -0.0206202 -0.0652869)
(-0.0957147 -0.0108394 -0.143112)
(-0.0413218 0.00481984 -0.188727)
(-0.0241911 -0.0108607 0.151626)
(-0.0226821 -0.0104262 0.0991059)
(0.0216367 -0.00594046 0.0635275)
(0.0524501 0.000205122 0.0425185)
(0.0720011 0.00665107 0.0269966)
(0.0755815 0.0138221 0.0103341)
(0.0562863 0.0210531 -0.0172339)
(0.022042 0.0212216 -0.0739892)
(-0.043146 0.00710447 -0.168903)
(-0.00706628 -0.0161208 -0.256134)
(-0.0435637 -0.0214239 0.210866)
(-0.0469482 -0.0222367 0.167781)
(0.0118244 -0.0134588 0.123967)
(0.0627521 -0.000905297 0.0919641)
(0.104426 0.0131628 0.0642397)
(0.132239 0.0283949 0.0331302)
(0.132695 0.0430984 -0.0139476)
(0.117373 0.0434182 -0.103369)
(0.0317796 0.0141117 -0.251602)
(0.0408534 -0.0283732 -0.365713)
(-0.0488143 -0.0182488 0.220445)
(-0.0565393 -0.02159 0.18585)
(0.00127498 -0.0142013 0.144179)
(0.0564405 -0.00265844 0.1111)
(0.106282 0.0111355 0.0802893)
(0.146855 0.0256194 0.0440625)
(0.160427 0.0380948 -0.00965904)
(0.158935 0.0364225 -0.108142)
(0.0694777 0.00982938 -0.272224)
(0.0592732 -0.0194232 -0.39234)
(-0.0494252 -0.0110399 0.220978)
(-0.0582103 -0.0140332 0.188901)
(-0.00136827 -0.00966891 0.148946)
(0.0546005 -0.00239611 0.116661)
(0.106806 0.00646833 0.0856639)
(0.151776 0.0157415 0.0479922)
(0.169551 0.0232239 -0.00829844)
(0.171856 0.0216426 -0.110253)
(0.0785792 0.00613454 -0.279771)
(0.0621019 -0.00977571 -0.401633)
(-0.0491735 -0.00359976 0.220505)
(-0.0578234 -0.00474164 0.188876)
(-0.00107618 -0.00333885 0.149613)
(0.0551522 -0.000929631 0.117903)
(0.107949 0.00203525 0.0871729)
(0.15402 0.005136 0.0492071)
(0.172567 0.00757087 -0.00805663)