/*--------------------------------*- C++ -*----------------------------------*\
  =========                 |
  \\      /  F ield         | OpenFOAM: The Open Source CFD Toolbox
   \\    /   O peration     | Website:  https://openfoam.org
    \\  /    A nd           | Version:  9
     \\/     M anipulation  |
\*---------------------------------------------------------------------------*/
FoamFile
{
    format      ascii;
    class       volVectorField;
    location    "0.09";
    object      U;
}
// * * * * * * * * * * * * * * * * * * * * * * * * * * * * * * * * * * * * * //

dimensions      [0 1 -1 0 0 0 0];

internalField   nonuniform List<vector> 
1000
(
(-0.000714058 -0.000119997 0.000776011)
(-0.00337334 3.58129e-05 0.00138798)
(-0.00702334 7.25013e-05 0.00132136)
(-0.00995071 3.86183e-05 0.000992827)
(-0.0117756 -3.96097e-05 0.000534394)
(-0.012219 -0.000138618 -1.59914e-05)
(-0.011072 -0.000240189 -0.000629861)
(-0.00829454 -0.000308561 -0.00120141)
(-0.00420469 -0.000275622 -0.00146893)
(-0.000950194 -3.82069e-05 -0.000864556)
(-0.00120255 -0.000281053 0.00118235)
(-0.00556163 -6.40063e-05 0.00229939)
(-0.0114322 1.06741e-05 0.00219971)
(-0.0160477 -2.29924e-05 0.00160575)
(-0.0188435 -0.000130921 0.000781802)
(-0.0194351 -0.000282838 -0.000200431)
(-0.0175466 -0.000440559 -0.00127024)
(-0.0131206 -0.000539561 -0.00223684)
(-0.00663884 -0.000471925 -0.0026125)
(-0.00149338 -8.41626e-05 -0.00140056)
(-0.00128629 -0.000292969 0.00119733)
(-0.00605003 -0.000216347 0.00245178)
(-0.0125028 -0.000150032 0.00235846)
(-0.0175517 -0.000137886 0.00170974)
(-0.0205969 -0.000173683 0.000803811)
(-0.0212263 -0.000245719 -0.00027421)
(-0.0191382 -0.000323324 -0.00144639)
(-0.0142704 -0.000362402 -0.00249977)
(-0.00714181 -0.00030538 -0.00288182)
(-0.00156122 -8.23608e-05 -0.00148933)
(-0.00126941 -0.000203415 0.00115063)
(-0.00609281 -0.000188708 0.00242415)
(-0.0126867 -0.000146833 0.00234167)
(-0.0178456 -0.00012589 0.00169718)
(-0.0209583 -0.000130368 0.000791504)
(-0.0216022 -0.000153598 -0.000290643)
(-0.0194663 -0.000180215 -0.00147147)
(-0.0144859 -0.000188608 -0.0025334)
(-0.00719142 -0.000155278 -0.00290983)
(-0.00153908 -5.51625e-05 -0.00148043)
(-0.00125326 -7.19423e-05 0.00112331)
(-0.00607533 -7.27971e-05 0.00239607)
(-0.0126985 -5.89149e-05 0.00231974)
(-0.017884 -4.94167e-05 0.00168257)
(-0.0210162 -4.74322e-05 0.000784071)
(-0.021667 -5.1417e-05 -0.000292141)
(-0.0195213 -5.67722e-05 -0.00146927)
(-0.0145139 -5.71992e-05 -0.00252901)
(-0.00717983 -4.66471e-05 -0.00290258)
(-0.00152229 -1.9093e-05 -0.00146905)
(-0.00125326 7.20337e-05 0.00112331)
(-0.00607533 7.28234e-05 0.00239607)
(-0.0126985 5.89342e-05 0.00231974)
(-0.017884 4.94345e-05 0.00168257)
(-0.0210162 4.74458e-05 0.00078407)
(-0.021667 5.14268e-05 -0.000292141)
(-0.0195213 5.67798e-05 -0.00146927)
(-0.0145139 5.72069e-05 -0.00252901)
(-0.00717983 4.66567e-05 -0.00290258)
(-0.00152229 1.90963e-05 -0.00146905)
(-0.00126941 0.000203534 0.00115063)
(-0.00609282 0.00018874 0.00242416)
(-0.0126867 0.000146857 0.00234167)
(-0.0178456 0.000125911 0.00169718)
(-0.0209583 0.000130383 0.000791503)
(-0.0216022 0.000153609 -0.000290643)
(-0.0194663 0.000180224 -0.00147147)
(-0.0144859 0.000188616 -0.00253339)
(-0.00719142 0.000155288 -0.00290983)
(-0.00153908 5.5164e-05 -0.00148043)
(-0.00128628 0.000293071 0.00119735)
(-0.00605005 0.000216358 0.00245182)
(-0.0125028 0.000150049 0.00235846)
(-0.0175517 0.000137905 0.00170974)
(-0.0205969 0.000173698 0.00080381)
(-0.0212263 0.000245731 -0.000274208)
(-0.0191382 0.000323333 -0.00144638)
(-0.0142704 0.00036241 -0.00249976)
(-0.00714181 0.000305389 -0.00288181)
(-0.00156122 8.23619e-05 -0.00148933)
(-0.00120244 0.000281128 0.00118247)
(-0.00556157 6.3964e-05 0.00229949)
(-0.0114322 -1.06443e-05 0.00219974)
(-0.0160477 2.30183e-05 0.00160576)
(-0.0188435 0.000130942 0.000781807)
(-0.0194351 0.000282853 -0.000200425)
(-0.0175466 0.000440568 -0.00127023)
(-0.0131206 0.000539568 -0.00223683)
(-0.00663884 0.000471936 -0.00261249)
(-0.00149337 8.41673e-05 -0.00140055)
(-0.000713956 0.000119898 0.000776118)
(-0.0033734 -3.59156e-05 0.0013881)
(-0.00702343 -7.25022e-05 0.00132137)
(-0.00995081 -3.8611e-05 0.000992829)
(-0.0117757 3.96162e-05 0.000534397)
(-0.012219 0.000138621 -1.59861e-05)
(-0.0110721 0.000240189 -0.000629851)
(-0.00829456 0.000308561 -0.0012014)
(-0.0042047 0.000275627 -0.00146892)
(-0.00095019 3.82139e-05 -0.000864554)
(-0.00143916 -0.000403758 0.00377071)
(-0.00605008 -0.000249004 0.00598197)
(-0.0119551 -0.00016017 0.00556412)
(-0.0166249 -0.000128731 0.00410845)
(-0.0195069 -0.00013648 0.00212963)
(-0.0202073 -0.000174535 -0.000204925)
(-0.0184111 -0.00022156 -0.00274315)
(-0.0140137 -0.000242459 -0.00509111)
(-0.00744641 -0.000154629 -0.00627322)
(-0.00185624 0.000153207 -0.00413394)
(-0.00264078 -0.00077561 0.00576785)
(-0.0107272 -0.00056584 0.00979246)
(-0.0207908 -0.000397235 0.00913373)
(-0.0285867 -0.000316813 0.00655732)
(-0.0332403 -0.000309175 0.00306677)
(-0.0341824 -0.00036008 -0.00101024)
(-0.0309894 -0.000428781 -0.00536487)
(-0.0235441 -0.00044854 -0.00927805)
(-0.012554 -0.000287689 -0.0109501)
(-0.00315738 0.000211242 -0.00663268)
(-0.00290374 -0.000628018 0.00604085)
(-0.0118914 -0.000574313 0.0105507)
(-0.0231028 -0.000440395 0.00987023)
(-0.0317361 -0.000347329 0.00703216)
(-0.0368528 -0.000309091 0.00317122)
(-0.0378427 -0.000317851 -0.00133547)
(-0.034255 -0.000342936 -0.00613939)
(-0.0259685 -0.000333857 -0.0104272)
(-0.0137566 -0.000218851 -0.0121569)
(-0.00341084 6.37964e-05 -0.00717448)
(-0.00290753 -0.000382674 0.00596996)
(-0.0120442 -0.00039427 0.0105614)
(-0.0235194 -0.000314677 0.00990453)
(-0.0323525 -0.00024698 0.00705036)
(-0.0375876 -0.000209737 0.00315069)
(-0.0385992 -0.000199697 -0.001413)
(-0.0349237 -0.000200498 -0.00628661)
(-0.0264354 -0.000185104 -0.0106352)
(-0.0139263 -0.000123683 -0.0123613)
(-0.00341115 1.34744e-06 -0.00723554)
(-0.00288622 -0.000127514 0.00590625)
(-0.0120273 -0.000138603 0.0105022)
(-0.0235526 -0.000112721 0.00986247)
(-0.0324297 -8.8253e-05 0.0070237)
(-0.0376963 -7.31015e-05 0.00313552)
(-0.0387193 -6.67584e-05 -0.00142235)
(-0.0350288 -6.43224e-05 -0.0062968)
(-0.0264973 -5.76352e-05 -0.0106492)
(-0.0139239 -3.90376e-05 -0.0123716)
(-0.00339199 -5.28306e-06 -0.00722572)
(-0.00288622 0.000127543 0.00590625)
(-0.0120273 0.000138552 0.0105022)
(-0.0235526 0.000112689 0.00986247)
(-0.0324297 8.82417e-05 0.0070237)
(-0.0376963 7.30972e-05 0.00313552)
(-0.0387193 6.6757e-05 -0.00142235)
(-0.0350288 6.43233e-05 -0.00629679)
(-0.0264973 5.76412e-05 -0.0106492)
(-0.0139239 3.9051e-05 -0.0123716)
(-0.00339199 5.29402e-06 -0.00722572)
(-0.00290752 0.00038271 0.00596996)
(-0.0120442 0.000394215 0.0105614)
(-0.0235194 0.000314644 0.00990453)
(-0.0323524 0.000246969 0.00705035)
(-0.0375875 0.000209734 0.00315068)
(-0.0385992 0.000199696 -0.00141301)
(-0.0349237 0.0002005 -0.00628661)
(-0.0264354 0.000185111 -0.0106352)
(-0.0139262 0.000123697 -0.0123613)
(-0.00341114 -1.33773e-06 -0.00723554)
(-0.0029037 0.000628032 0.00604085)
(-0.0118913 0.000574234 0.0105508)
(-0.0231027 0.000440353 0.00987024)
(-0.0317361 0.000347316 0.00703215)
(-0.0368528 0.000309087 0.00317121)
(-0.0378427 0.000317851 -0.00133547)
(-0.034255 0.00034294 -0.00613939)
(-0.0259685 0.000333868 -0.0104272)
(-0.0137565 0.00021887 -0.0121569)
(-0.00341084 -6.37845e-05 -0.00717447)
(-0.00264068 0.000775555 0.00576792)
(-0.0107271 0.00056574 0.00979257)
(-0.0207907 0.000397205 0.00913376)
(-0.0285867 0.000316812 0.00655733)
(-0.0332403 0.000309181 0.00306677)
(-0.0341824 0.000360087 -0.00101023)
(-0.0309894 0.00042879 -0.00536486)
(-0.0235441 0.000448554 -0.00927804)
(-0.0125539 0.000287714 -0.0109501)
(-0.00315736 -0.000211226 -0.00663268)
(-0.00143904 0.000403643 0.00377067)
(-0.00605002 0.000248905 0.00598204)
(-0.0119551 0.000160138 0.00556411)
(-0.0166249 0.000128724 0.00410845)
(-0.0195069 0.00013648 0.00212963)
(-0.0202073 0.000174535 -0.00020492)
(-0.0184111 0.000221562 -0.00274314)
(-0.0140137 0.000242467 -0.0050911)
(-0.00744641 0.000154646 -0.00627322)
(-0.00185623 -0.000153191 -0.00413393)
(-0.00189651 -0.000631491 0.0087233)
(-0.0077518 -0.000471507 0.0130779)
(-0.0150671 -0.000342646 0.0119908)
(-0.0208052 -0.000264405 0.00880165)
(-0.0244335 -0.000227064 0.00456547)
(-0.0255355 -0.000230999 -0.000389768)
(-0.0236645 -0.000254476 -0.0057948)
(-0.0184744 -0.000257925 -0.0109069)
(-0.0102119 -0.000133301 -0.0137302)
(-0.00268833 0.000255172 -0.00966433)
(-0.0035441 -0.00119206 0.0133065)
(-0.0139895 -0.000985697 0.0212041)
(-0.0266526 -0.000737233 0.0194707)
(-0.0363674 -0.000562036 0.0138901)
(-0.0422873 -0.000464965 0.00648863)
(-0.0438178 -0.000447047 -0.0020791)
(-0.0403444 -0.000468521 -0.0112747)
(-0.0313859 -0.00045442 -0.0197292)
(-0.0173737 -0.000233182 -0.0237708)
(-0.00459238 0.000381304 -0.0154304)
(-0.0039137 -0.000935214 0.0140931)
(-0.0155655 -0.000905149 0.0229298)
(-0.0297243 -0.000703317 0.0210986)
(-0.0405181 -0.000526026 0.014937)
(-0.0470446 -0.000409576 0.00673548)
(-0.0486689 -0.000356927 -0.00275835)
(-0.0447352 -0.000340495 -0.0129279)
(-0.0347247 -0.000304322 -0.0222162)
(-0.0191082 -0.000156241 -0.0264525)
(-0.00498868 0.00016772 -0.0167977)
(-0.00392282 -0.000554119 0.0140675)
(-0.0157695 -0.00058866 0.0230803)
(-0.0302637 -0.000467096 0.0212799)
(-0.0413105 -0.000345174 0.0150558)
(-0.0479926 -0.000257375 0.00673946)
(-0.0496576 -0.000207462 -0.0029077)
(-0.0456305 -0.000181753 -0.0132571)
(-0.035376 -0.000150785 -0.0227082)
(-0.0193767 -7.67079e-05 -0.0269723)
(-0.00501012 5.36303e-05 -0.0170349)
(-0.00389413 -0.00018138 0.0139852)
(-0.0157423 -0.000201092 0.0230169)
(-0.0302953 -0.000161212 0.0212461)
(-0.0413957 -0.000118425 0.0150418)
(-0.048119 -8.61655e-05 0.00673387)
(-0.0498039 -6.62264e-05 -0.00291749)
(-0.0457663 -5.48073e-05 -0.013285)
(-0.0354647 -4.32046e-05 -0.0227601)
(-0.0193866 -2.17629e-05 -0.0270307)
(-0.00499187 1.07644e-05 -0.0170545)
(-0.00389413 0.000181401 0.0139852)
(-0.0157423 0.000201053 0.0230169)
(-0.0302953 0.000161195 0.0212461)
(-0.0413957 0.000118427 0.0150418)
(-0.048119 8.61697e-05 0.00673387)
(-0.0498039 6.62296e-05 -0.0029175)
(-0.0457663 5.48105e-05 -0.013285)
(-0.0354647 4.32093e-05 -0.0227601)
(-0.0193866 2.177e-05 -0.0270307)
(-0.00499188 -1.07545e-05 -0.0170545)
(-0.00392281 0.000554143 0.0140675)
(-0.0157695 0.000588619 0.0230803)
(-0.0302637 0.000467078 0.0212799)
(-0.0413105 0.000345173 0.0150558)
(-0.0479926 0.000257377 0.00673945)
(-0.0496576 0.000207463 -0.00290771)
(-0.0456305 0.000181755 -0.0132571)
(-0.035376 0.000150789 -0.0227082)
(-0.0193767 7.67153e-05 -0.0269723)
(-0.00501013 -5.36221e-05 -0.0170349)
(-0.00391369 0.000935231 0.0140931)
(-0.0155655 0.000905096 0.0229299)
(-0.0297243 0.000703291 0.0210987)
(-0.0405181 0.00052602 0.014937)
(-0.0470446 0.000409572 0.00673547)
(-0.0486689 0.000356923 -0.00275836)
(-0.0447352 0.000340495 -0.012928)
(-0.0347246 0.000304327 -0.0222162)
(-0.0191082 0.000156252 -0.0264526)
(-0.00498868 -0.000167713 -0.0167977)
(-0.00354406 0.00119208 0.0133065)
(-0.0139894 0.000985651 0.0212041)
(-0.0266525 0.000737217 0.0194707)
(-0.0363673 0.000562037 0.0138901)
(-0.0422873 0.000464966 0.00648863)
(-0.0438178 0.000447044 -0.00207911)
(-0.0403444 0.000468522 -0.0112747)
(-0.0313859 0.000454427 -0.0197292)
(-0.0173737 0.000233194 -0.0237709)
(-0.00459238 -0.000381298 -0.0154305)
(-0.00189649 0.000631477 0.00872324)
(-0.00775181 0.000471465 0.0130779)
(-0.0150671 0.000342628 0.0119908)
(-0.0208052 0.000264399 0.00880165)
(-0.0244335 0.00022706 0.00456547)
(-0.0255355 0.000230993 -0.000389769)
(-0.0236645 0.000254473 -0.0057948)
(-0.0184744 0.000257928 -0.0109069)
(-0.0102119 0.000133309 -0.0137303)
(-0.00268833 -0.000255165 -0.00966432)
(-0.00254714 -0.000904964 0.0150373)
(-0.0100139 -0.000722386 0.0218862)
(-0.0190329 -0.000540002 0.0198438)
(-0.0260471 -0.000409845 0.0145928)
(-0.0306676 -0.000331389 0.00780999)
(-0.032536 -0.000312012 -0.000116421)
(-0.0310039 -0.000330752 -0.00893978)
(-0.0252035 -0.000342526 -0.0177427)
(-0.0148639 -0.000190031 -0.0232603)
(-0.00425913 0.000304687 -0.0173246)
(-0.00473377 -0.00170045 0.022746)
(-0.0180695 -0.00147195 0.0351419)
(-0.0337516 -0.00111086 0.0318892)
(-0.0456714 -0.000818733 0.0227598)
(-0.0532294 -0.000625313 0.0109606)
(-0.0559385 -0.000545952 -0.00267959)
(-0.0528854 -0.00054527 -0.0176707)
(-0.0427727 -0.000539902 -0.0321924)
(-0.025191 -0.000282875 -0.040217)
(-0.00718779 0.000468275 -0.0276157)
(-0.00521497 -0.0013231 0.024109)
(-0.0200741 -0.00130519 0.0379736)
(-0.0376164 -0.000998738 0.0345322)
(-0.0508724 -0.000702561 0.0244731)
(-0.0592179 -0.000483439 0.011415)
(-0.0621373 -0.000357674 -0.00368831)
(-0.0586518 -0.000306416 -0.0202677)
(-0.0473429 -0.000270174 -0.0362384)
(-0.0277506 -0.000118879 -0.0447481)
(-0.00783852 0.00023064 -0.0301211)
(-0.00521935 -0.000775309 0.0241253)
(-0.0203066 -0.000827823 0.03828)
(-0.0382542 -0.000638321 0.0348906)
(-0.0518212 -0.000435244 0.0247357)
(-0.0603728 -0.000275327 0.0114983)
(-0.0633762 -0.000171673 -0.00384924)
(-0.059825 -0.000119049 -0.0207304)
(-0.0482559 -8.66927e-05 -0.0370048)
(-0.0281973 -2.13375e-05 -0.0456267)
(-0.00791403 9.37515e-05 -0.0305974)
(-0.00517717 -0.000251649 0.024021)
(-0.020254 -0.00027878 0.0382153)
(-0.038266 -0.000215833 0.0348779)
(-0.0518976 -0.00014485 0.0247572)
(-0.0605049 -8.71588e-05 0.0115339)
(-0.063546 -4.79536e-05 -0.00382138)
(-0.0600012 -2.68157e-05 -0.0207393)
(-0.0483911 -1.45916e-05 -0.0370685)
(-0.0282429 2.30773e-06 -0.045726)
(-0.0079078 2.51223e-05 -0.0306572)
(-0.00517717 0.000251665 0.024021)
(-0.020254 0.000278754 0.0382154)
(-0.038266 0.000215826 0.0348779)
(-0.0518976 0.000144856 0.0247572)
(-0.0605049 8.71623e-05 0.0115339)
(-0.063546 4.79517e-05 -0.00382138)
(-0.0600012 2.68097e-05 -0.0207393)
(-0.0483911 1.45806e-05 -0.0370685)
(-0.0282429 -2.32015e-06 -0.045726)
(-0.0079078 -2.51202e-05 -0.0306572)
(-0.00521935 0.000775326 0.0241253)
(-0.0203066 0.000827796 0.03828)
(-0.0382542 0.000638311 0.0348906)
(-0.0518212 0.000435246 0.0247357)
(-0.0603728 0.000275326 0.0114983)
(-0.0633762 0.000171667 -0.00384925)
(-0.059825 0.000119042 -0.0207304)
(-0.0482559 8.66822e-05 -0.0370048)
(-0.0281973 2.13251e-05 -0.0456268)
(-0.00791403 -9.37516e-05 -0.0305974)
(-0.00521497 0.00132311 0.024109)
(-0.0200741 0.00130516 0.0379736)
(-0.0376164 0.000998724 0.0345322)
(-0.0508724 0.000702556 0.0244731)
(-0.0592179 0.000483429 0.011415)
(-0.0621373 0.000357659 -0.00368834)
(-0.0586518 0.000306404 -0.0202678)
(-0.0473429 0.000270165 -0.0362384)
(-0.0277506 0.000118869 -0.0447481)
(-0.00783853 -0.000230643 -0.0301211)
(-0.00473376 0.00170046 0.022746)
(-0.0180695 0.00147193 0.035142)
(-0.0337516 0.00111086 0.0318892)
(-0.0456714 0.000818732 0.0227598)
(-0.0532294 0.000625302 0.0109605)
(-0.0559385 0.000545933 -0.00267962)
(-0.0528854 0.000545254 -0.0176707)
(-0.0427727 0.000539891 -0.0321925)
(-0.0251911 0.000282865 -0.040217)
(-0.00718779 -0.000468282 -0.0276157)
(-0.00254713 0.000904959 0.0150372)
(-0.0100139 0.000722368 0.0218862)
(-0.0190329 0.000539994 0.0198437)
(-0.0260471 0.000409841 0.0145928)
(-0.0306676 0.000331379 0.00780998)
(-0.0325361 0.000311995 -0.000116435)
(-0.0310039 0.000330737 -0.0089398)
(-0.0252036 0.000342516 -0.0177428)
(-0.0148639 0.000190025 -0.0232603)
(-0.00425914 -0.000304693 -0.0173246)
(-0.00374431 -0.00130672 0.0236199)
(-0.0137001 -0.00106847 0.0332452)
(-0.0249537 -0.000779511 0.0296874)
(-0.0335501 -0.00055052 0.0219073)
(-0.0395081 -0.000394544 0.0122868)
(-0.0426481 -0.000315911 0.00108268)
(-0.0421476 -0.000343411 -0.0118364)
(-0.036287 -0.000396045 -0.0257832)
(-0.0235747 -0.000255424 -0.0360961)
(-0.00758113 0.000274944 -0.029178)
(-0.00680003 -0.0024302 0.035303)
(-0.024466 -0.0021244 0.0528032)
(-0.0441062 -0.00154662 0.0472127)
(-0.0587583 -0.00104004 0.0338016)
(-0.0684987 -0.00067173 0.0171186)
(-0.0732188 -0.00046316 -0.00215599)
(-0.0717123 -0.000443509 -0.0240733)
(-0.0612956 -0.000499038 -0.0470837)
(-0.0396797 -0.000296454 -0.0624393)
(-0.0126168 0.000429041 -0.0466089)
(-0.00744376 -0.00186082 0.0373379)
(-0.0270548 -0.0018234 0.0569378)
(-0.0490235 -0.00132313 0.0510624)
(-0.0653359 -0.000818462 0.03636)
(-0.0761115 -0.000422831 0.0179552)
(-0.0812577 -0.000169814 -0.00334534)
(-0.0794803 -6.69358e-05 -0.0275754)
(-0.0678319 -6.76566e-05 -0.052913)
(-0.043796 -1.45197e-06 -0.069412)
(-0.0138304 0.000232478 -0.0509438)
(-0.00743449 -0.0010741 0.0373893)
(-0.0273019 -0.00113035 0.0574246)
(-0.0497594 -0.000818369 0.0516548)
(-0.0664594 -0.000477066 0.036854)
(-0.0775162 -0.00019719 0.0182314)
(-0.0828266 -5.09983e-06 -0.00339124)
(-0.0810633 8.53463e-05 -0.0280483)
(-0.0691901 9.69591e-05 -0.053891)
(-0.0446285 9.76442e-05 -0.0707017)
(-0.0140561 0.000115396 -0.0518072)
(-0.0073694 -0.000345339 0.0372559)
(-0.0272018 -0.000376 0.0573618)
(-0.0497264 -0.000272116 0.051685)
(-0.0665065 -0.000153802 0.036951)
(-0.077643 -5.4526e-05 0.0183633)
(-0.0830244 1.57303e-05 -0.0032623)
(-0.0813057 4.94318e-05 -0.027964)
(-0.0694184 5.50089e-05 -0.0539055)
(-0.0447707 4.92156e-05 -0.0708193)
(-0.0140928 3.64838e-05 -0.0519334)
(-0.0073694 0.000345349 0.0372559)
(-0.0272018 0.000375981 0.0573618)
(-0.0497264 0.00027211 0.051685)
(-0.0665065 0.000153804 0.036951)
(-0.077643 5.4523e-05 0.0183633)
(-0.0830244 -1.57394e-05 -0.0032623)
(-0.0813057 -4.94436e-05 -0.0279639)
(-0.0694184 -5.50224e-05 -0.0539055)
(-0.0447707 -4.92226e-05 -0.0708193)
(-0.0140928 -3.64779e-05 -0.0519334)
(-0.00743449 0.00107411 0.0373893)
(-0.0273019 0.00113033 0.0574246)
(-0.0497594 0.000818362 0.0516548)
(-0.0664594 0.000477065 0.036854)
(-0.0775162 0.000197183 0.0182314)
(-0.0828266 5.08913e-06 -0.00339125)
(-0.0810633 -8.5356e-05 -0.0280483)
(-0.0691901 -9.69706e-05 -0.0538909)
(-0.0446285 -9.76545e-05 -0.0707017)
(-0.0140561 -0.000115394 -0.0518072)
(-0.00744376 0.00186083 0.0373379)
(-0.0270548 0.00182339 0.0569378)
(-0.0490235 0.00132312 0.0510625)
(-0.0653359 0.000818457 0.03636)
(-0.0761115 0.000422817 0.0179552)
(-0.0812577 0.000169796 -0.00334535)
(-0.0794803 6.69266e-05 -0.0275754)
(-0.0678319 6.76504e-05 -0.052913)
(-0.043796 1.44709e-06 -0.069412)
(-0.0138304 -0.000232475 -0.0509438)
(-0.00680003 0.00243021 0.035303)
(-0.024466 0.0021244 0.0528033)
(-0.0441062 0.00154663 0.0472127)
(-0.0587583 0.00104004 0.0338016)
(-0.0684987 0.000671714 0.0171186)
(-0.0732188 0.000463138 -0.002156)
(-0.0717123 0.000443499 -0.0240733)
(-0.0612956 0.000499039 -0.0470837)
(-0.0396797 0.000296462 -0.0624393)
(-0.0126168 -0.000429032 -0.0466089)
(-0.0037443 0.00130672 0.0236199)
(-0.0137001 0.00106847 0.0332452)
(-0.0249537 0.000779515 0.0296874)
(-0.0335501 0.00055052 0.0219073)
(-0.0395081 0.000394534 0.0122868)
(-0.0426481 0.000315894 0.00108267)
(-0.0421476 0.000343402 -0.0118364)
(-0.036287 0.000396047 -0.0257832)
(-0.0235747 0.000255434 -0.036096)
(-0.00758111 -0.000274933 -0.029178)
(-0.00606223 -0.00192415 0.0361286)
(-0.0198483 -0.00154187 0.0482081)
(-0.0335603 -0.00100537 0.0419146)
(-0.043619 -0.000555883 0.0308937)
(-0.0509679 -0.000232915 0.0182315)
(-0.0559584 -3.71082e-05 0.00373618)
(-0.0577611 1.95087e-05 -0.0137677)
(-0.0534409 -9.2938e-05 -0.0347054)
(-0.0392502 -0.000109276 -0.0534146)
(-0.0142719 7.02465e-05 -0.0490745)
(-0.0105683 -0.00351475 0.0531466)
(-0.0346956 -0.00298642 0.0756964)
(-0.0588508 -0.00193898 0.0661099)
(-0.0761114 -0.000987064 0.0474186)
(-0.0881044 -0.000259565 0.0255832)
(-0.0955991 0.000219744 0.000635856)
(-0.0974529 0.000409605 -0.0290223)
(-0.0891078 0.000264565 -0.0636098)
(-0.0648808 0.000130913 -0.0922573)
(-0.0231022 0.000111224 -0.0786623)
(-0.011451 -0.00261714 0.0559985)
(-0.0380685 -0.00247718 0.0814039)
(-0.0651164 -0.0015965 0.0714512)
(-0.0843821 -0.000701931 0.0511323)
(-0.0976692 2.21933e-05 0.0271568)
(-0.105867 0.00052607 -0.000343405)
(-0.107761 0.000765332 -0.0330634)
(-0.0983501 0.000692747 -0.0711905)
(-0.0714874 0.000450922 -0.102342)
(-0.0252981 0.000101442 -0.0861246)
(-0.0114106 -0.00147685 0.0560779)
(-0.0382912 -0.00150047 0.0821068)
(-0.0659177 -0.000963845 0.0723681)
(-0.0856647 -0.000381545 0.0519987)
(-0.0993328 0.000103205 0.0278166)
(-0.107804 0.000445485 -3.14675e-05)
(-0.109854 0.000624611 -0.0332853)
(-0.100354 0.000591366 -0.0721892)
(-0.0730081 0.000403824 -0.104058)
(-0.0258311 9.31443e-05 -0.0876609)
(-0.0113071 -0.000468845 0.055906)
(-0.0381046 -0.000493177 0.0820493)
(-0.0657942 -0.000316856 0.0724712)
(-0.0856445 -0.000119011 0.0522262)
(-0.0994316 4.84092e-05 0.0281241)
(-0.108019 0.000167701 0.00030516)
(-0.110179 0.000231747 -0.0329923)
(-0.100742 0.000222214 -0.0720543)
(-0.0733579 0.000154544 -0.104153)
(-0.0259732 3.88889e-05 -0.0879126)
(-0.0113071 0.000468849 0.055906)
(-0.0381046 0.000493167 0.0820493)
(-0.0657943 0.000316855 0.0724712)
(-0.0856445 0.000119013 0.0522262)
(-0.0994316 -4.84134e-05 0.0281241)
(-0.108019 -0.000167705 0.000305161)
(-0.110179 -0.000231742 -0.0329923)
(-0.100742 -0.0002222 -0.0720543)
(-0.0733579 -0.000154528 -0.104153)
(-0.0259732 -3.88759e-05 -0.0879126)
(-0.0114106 0.00147685 0.0560779)
(-0.0382912 0.00150047 0.0821069)
(-0.0659178 0.000963843 0.0723681)
(-0.0856647 0.000381545 0.0519987)
(-0.0993328 -0.00010321 0.0278166)
(-0.107804 -0.000445489 -3.14625e-05)
(-0.109854 -0.000624606 -0.0332853)
(-0.100354 -0.000591357 -0.0721892)
(-0.0730081 -0.000403819 -0.104058)
(-0.0258311 -9.31357e-05 -0.0876609)
(-0.011451 0.00261715 0.0559985)
(-0.0380685 0.00247718 0.0814039)
(-0.0651164 0.0015965 0.0714513)
(-0.0843822 0.000701929 0.0511323)
(-0.0976693 -2.22022e-05 0.0271568)
(-0.105867 -0.000526076 -0.000343398)
(-0.107761 -0.000765321 -0.0330633)
(-0.0983501 -0.00069273 -0.0711904)
(-0.0714874 -0.000450905 -0.102342)
(-0.0252981 -0.000101427 -0.0861246)
(-0.0105683 0.00351476 0.0531466)
(-0.0346956 0.00298643 0.0756965)
(-0.0588508 0.00193899 0.06611)
(-0.0761114 0.000987063 0.0474186)
(-0.0881044 0.000259551 0.0255832)
(-0.0955991 -0.000219755 0.000635858)
(-0.0974529 -0.000409586 -0.0290222)
(-0.0891078 -0.00026453 -0.0636097)
(-0.0648808 -0.00013088 -0.0922573)
(-0.0231022 -0.000111212 -0.0786623)
(-0.00606223 0.00192416 0.0361285)
(-0.0198483 0.00154189 0.0482081)
(-0.0335603 0.00100538 0.0419146)
(-0.043619 0.000555883 0.0308937)
(-0.0509679 0.000232904 0.0182315)
(-0.0559584 3.70975e-05 0.00373617)
(-0.0577611 -1.94972e-05 -0.0137676)
(-0.0534409 9.29667e-05 -0.0347054)
(-0.0392502 0.000109304 -0.0534146)
(-0.0142719 -7.02326e-05 -0.0490745)
(-0.0107759 -0.00286742 0.0559123)
(-0.0302318 -0.00213022 0.0676363)
(-0.0449327 -0.00101042 0.0560056)
(-0.054758 -8.30037e-05 0.0406505)
(-0.0623775 0.000599227 0.0249696)
(-0.0691198 0.00112411 0.00782704)
(-0.0746215 0.00152025 -0.0137894)
(-0.074658 0.00149532 -0.043327)
(-0.0631108 0.00109361 -0.0754795)
(-0.025428 -0.000158869 -0.0839405)
(-0.0177314 -0.00512061 0.0805648)
(-0.050998 -0.00403947 0.105195)
(-0.0776643 -0.00196061 0.0881242)
(-0.0947074 -0.000109207 0.062739)
(-0.106726 0.00132401 0.0359886)
(-0.116121 0.00244171 0.00657906)
(-0.122519 0.0032535 -0.0300755)
(-0.119469 0.00322932 -0.0790337)
(-0.0985369 0.00230324 -0.129427)
(-0.0377957 -0.000346273 -0.13489)
(-0.0189567 -0.0036751 0.0844987)
(-0.0553152 -0.00326119 0.112841)
(-0.0853514 -0.00164664 0.0953001)
(-0.104506 -5.35605e-05 0.0680076)
(-0.117779 0.00124372 0.0388379)
(-0.127826 0.0022404 0.00656422)
(-0.134374 0.0028745 -0.033754)
(-0.130395 0.00278165 -0.0877244)
(-0.107039 0.00185536 -0.142993)
(-0.0405493 -0.00015352 -0.147836)
(-0.0188546 -0.00201341 0.0846122)
(-0.0554185 -0.00193799 0.113802)
(-0.0860915 -0.00100782 0.0966366)
(-0.105795 -2.77626e-05 0.0693868)
(-0.1195 0.00079782 0.0400741)
(-0.12989 0.00142716 0.00749524)
(-0.136746 0.0017905 -0.033413)
(-0.132876 0.00171166 -0.0885042)
(-0.109279 0.00113203 -0.145188)
(-0.041415 2.67309e-06 -0.150684)
(-0.0186904 -0.000629133 0.084393)
(-0.0550837 -0.000630791 0.113747)
(-0.0858004 -0.000334118 0.0968327)
(-0.105633 -1.03675e-05 0.0697814)
(-0.119497 0.000267354 0.0406087)
(-0.130066 0.000478105 0.00810887)
(-0.137134 0.000593648 -0.0328329)
(-0.133453 0.000564093 -0.0881659)
(-0.109944 0.000374088 -0.145286)
(-0.0417306 2.10505e-05 -0.151247)
(-0.0186904 0.000629132 0.084393)
(-0.0550837 0.000630786 0.113747)
(-0.0858004 0.000334112 0.0968327)
(-0.105633 1.03591e-05 0.0697814)
(-0.119497 -0.000267366 0.0406087)
(-0.130066 -0.000478105 0.00810887)
(-0.137134 -0.000593631 -0.0328329)
(-0.133453 -0.000564078 -0.088166)
(-0.109944 -0.000374103 -0.145286)
(-0.0417306 -2.10419e-05 -0.151247)
(-0.0188546 0.00201341 0.0846122)
(-0.0554185 0.00193799 0.113802)
(-0.0860915 0.00100781 0.0966365)
(-0.105795 2.7753e-05 0.0693868)
(-0.1195 -0.000797831 0.0400741)
(-0.12989 -0.00142716 0.00749525)
(-0.136746 -0.00179048 -0.0334129)
(-0.132876 -0.00171166 -0.0885043)
(-0.109279 -0.00113204 -0.145188)
(-0.041415 -2.67006e-06 -0.150684)
(-0.0189567 0.0036751 0.0844987)
(-0.0553152 0.00326119 0.112841)
(-0.0853514 0.00164663 0.0953001)
(-0.104506 5.35449e-05 0.0680076)
(-0.117779 -0.00124373 0.0388378)
(-0.127826 -0.00224041 0.00656425)
(-0.134374 -0.00287449 -0.033754)
(-0.130395 -0.00278165 -0.0877245)
(-0.107039 -0.00185536 -0.142993)
(-0.0405493 0.000153519 -0.147836)
(-0.0177314 0.00512062 0.0805648)
(-0.050998 0.00403948 0.105195)
(-0.0776643 0.00196061 0.0881242)
(-0.0947074 0.000109185 0.062739)
(-0.106726 -0.00132404 0.0359885)
(-0.116121 -0.00244171 0.00657908)
(-0.122519 -0.00325347 -0.0300754)
(-0.119469 -0.0032293 -0.0790337)
(-0.0985369 -0.00230326 -0.129427)
(-0.0377957 0.000346257 -0.13489)
(-0.0107759 0.00286743 0.0559123)
(-0.0302318 0.00213023 0.0676363)
(-0.0449327 0.00101041 0.0560056)
(-0.054758 8.29836e-05 0.0406505)
(-0.0623775 -0.000599251 0.0249696)
(-0.0691198 -0.00112412 0.00782703)
(-0.0746215 -0.00152023 -0.0137894)
(-0.074658 -0.0014953 -0.043327)
(-0.0631108 -0.00109362 -0.0754795)
(-0.025428 0.000158849 -0.0839405)
(-0.0203668 -0.00408745 0.0842973)
(-0.0459715 -0.00262918 0.0882228)
(-0.0529474 -0.000406482 0.0679962)
(-0.0561861 0.0012975 0.0475171)
(-0.0596673 0.00250638 0.0296739)
(-0.0653486 0.00364737 0.0117656)
(-0.0741384 0.00490159 -0.0121504)
(-0.0809255 0.00536382 -0.0521209)
(-0.083013 0.00466038 -0.104394)
(-0.0341774 -0.000805044 -0.147377)
(-0.031705 -0.00714792 0.117248)
(-0.0746001 -0.00499514 0.136672)
(-0.090072 -0.00108025 0.10808)
(-0.0955861 0.00218044 0.0750437)
(-0.0989065 0.00464291 0.0449959)
(-0.103591 0.00689489 0.0143783)
(-0.111203 0.00913334 -0.0262124)
(-0.113594 0.00980133 -0.0917479)
(-0.111732 0.00790252 -0.173367)
(-0.0402411 -0.00184743 -0.230506)
(-0.0335349 -0.00501812 0.121977)
(-0.0800012 -0.00412263 0.146405)
(-0.098199 -0.0013306 0.117266)
(-0.104669 0.00128927 0.0820599)
(-0.107955 0.00340563 0.049498)
(-0.111986 0.00520315 0.0160351)
(-0.118735 0.00665329 -0.0284801)
(-0.119437 0.00677608 -0.100499)
(-0.116833 0.00475452 -0.19042)
(-0.0408064 -0.00114899 -0.251407)
(-0.0333556 -0.00269113 0.12204)
(-0.0798481 -0.00245955 0.147601)
(-0.0985343 -0.000952004 0.119054)
(-0.10542 0.000571084 0.0839446)
(-0.108961 0.00185902 0.0512832)
(-0.113133 0.00291037 0.0175563)
(-0.120102 0.00363214 -0.0275628)
(-0.120984 0.00356824 -0.101218)
(-0.118897 0.00236965 -0.1936)
(-0.0416531 -0.0004424 -0.256558)
(-0.0331075 -0.000830024 0.121761)
(-0.079287 -0.000799923 0.147522)
(-0.097964 -0.000336869 0.11933)
(-0.104994 0.000152054 0.0844666)
(-0.108715 0.000574881 0.0519741)
(-0.11309 0.00091369 0.0183444)
(-0.120344 0.00112714 -0.0268012)
(-0.121553 0.00108889 -0.100895)
(-0.119842 0.000712656 -0.194009)
(-0.0421675 -9.4759e-05 -0.257811)
(-0.0331075 0.000830013 0.12176)
(-0.079287 0.00079991 0.147522)
(-0.097964 0.000336847 0.11933)
(-0.104994 -0.00015208 0.0844665)
(-0.108715 -0.000574898 0.0519741)
(-0.11309 -0.000913679 0.0183444)
(-0.120344 -0.00112712 -0.0268012)
(-0.121553 -0.0010889 -0.100895)
(-0.119842 -0.000712664 -0.194009)
(-0.0421675 9.4766e-05 -0.257811)
(-0.0333556 0.00269112 0.12204)
(-0.0798482 0.00245954 0.147601)
(-0.0985343 0.000951982 0.119054)
(-0.10542 -0.000571107 0.0839445)
(-0.108961 -0.00185903 0.0512832)
(-0.113133 -0.00291036 0.0175563)
(-0.120102 -0.00363212 -0.0275628)
(-0.120984 -0.00356825 -0.101218)
(-0.118897 -0.00236965 -0.1936)
(-0.0416531 0.000442406 -0.256558)
(-0.0335349 0.00501811 0.121977)
(-0.0800012 0.00412263 0.146405)
(-0.098199 0.00133058 0.117266)
(-0.104669 -0.00128929 0.0820599)
(-0.107955 -0.00340564 0.049498)
(-0.111986 -0.00520313 0.0160352)
(-0.118735 -0.00665327 -0.0284801)
(-0.119437 -0.00677609 -0.100499)
(-0.116833 -0.00475454 -0.19042)
(-0.0408063 0.00114898 -0.251407)
(-0.031705 0.00714793 0.117248)
(-0.0746001 0.00499515 0.136672)
(-0.090072 0.00108024 0.10808)
(-0.0955862 -0.00218046 0.0750437)
(-0.0989065 -0.00464291 0.0449959)
(-0.103591 -0.00689487 0.0143784)
(-0.111203 -0.00913331 -0.0262124)
(-0.113594 -0.00980135 -0.091748)
(-0.111732 -0.00790256 -0.173367)
(-0.0402411 0.00184742 -0.230506)
(-0.0203668 0.00408746 0.0842972)
(-0.0459715 0.00262919 0.0882228)
(-0.0529474 0.000406475 0.0679961)
(-0.0561861 -0.00129752 0.0475171)
(-0.0596673 -0.00250639 0.029674)
(-0.0653486 -0.00364735 0.0117656)
(-0.0741385 -0.00490155 -0.0121505)
(-0.0809256 -0.00536382 -0.052121)
(-0.083013 -0.00466042 -0.104394)
(-0.0341774 0.000805018 -0.147377)
(-0.0266604 -0.00683151 0.157109)
(-0.0369211 -0.00374047 0.101233)
(-0.00970854 0.000322629 0.0620824)
(0.00681807 0.00289961 0.0392315)
(0.0157897 0.00457035 0.023065)
(0.0169353 0.00623119 0.00791371)
(0.00679974 0.008279 -0.0144605)
(-0.00700004 0.00888087 -0.0599575)
(-0.047113 0.00820161 -0.138548)
(-0.00594835 -0.00619535 -0.224376)
(-0.0454627 -0.0113719 0.213049)
(-0.0613557 -0.0069294 0.154711)
(-0.0231353 -0.000291483 0.100737)
(0.00552633 0.004461 0.0653305)
(0.0259969 0.00782056 0.0386746)
(0.0368976 0.0109882 0.013652)
(0.0331018 0.0146043 -0.0215491)
(0.0291557 0.0155921 -0.0912912)
(-0.023846 0.0127629 -0.208446)
(0.0181937 -0.0102685 -0.315755)
(-0.048596 -0.00726107 0.220478)
(-0.0652373 -0.00569536 0.164559)
(-0.025725 -0.00149901 0.109319)