/*--------------------------------*- C++ -*----------------------------------*\
  =========                 |
  \\      /  F ield         | OpenFOAM: The Open Source CFD Toolbox
   \\    /   O peration     | Website:  https://openfoam.org
    \\  /    A nd           | Version:  9
     \\/     M anipulation  |
\*---------------------------------------------------------------------------*/
FoamFile
{
    format      ascii;
    class       volVectorField;
    location    "0.96";
    object      U;
}
// * * * * * * * * * * * * * * * * * * * * * * * * * * * * * * * * * * * * * //

dimensions      [0 1 -1 0 0 0 0];

internalField   nonuniform List<vector> 
1000
(
(3.64888e-05 -0.000518883 0.00033984)
(-0.00138694 -0.000490453 0.00107971)
(-0.00456343 -0.000447679 0.00144526)
(-0.0079692 -0.000557636 0.00160842)
(-0.010898 -0.000867809 0.00157993)
(-0.0123762 -0.00133841 0.00126729)
(-0.0114564 -0.00180365 0.000659532)
(-0.00788611 -0.00197045 -1.15997e-05)
(-0.00262368 -0.00156718 -0.00021048)
(0.00011517 -0.000469397 0.000386629)
(-0.000142446 -0.00184862 0.000596932)
(-0.00343081 -0.0022956 0.00232162)
(-0.0101719 -0.00238143 0.00309063)
(-0.017112 -0.00271502 0.00319476)
(-0.0227398 -0.00348033 0.00270401)
(-0.0252505 -0.0045737 0.00152208)
(-0.0230032 -0.00556753 -0.000206059)
(-0.0157088 -0.00575363 -0.00174253)
(-0.0054524 -0.00454982 -0.00176066)
(-6.25109e-07 -0.00168268 0.000244752)
(-0.000346602 -0.0027806 0.000280892)
(-0.00501334 -0.00391808 0.00236939)
(-0.0141565 -0.00424456 0.00327916)
(-0.0233196 -0.00469046 0.00323512)
(-0.0304576 -0.00554691 0.00230402)
(-0.0332649 -0.00669391 0.000417969)
(-0.0297377 -0.00758315 -0.00210734)
(-0.0197344 -0.00750484 -0.00402934)
(-0.00628495 -0.00591502 -0.00347784)
(0.000361586 -0.00251378 -3.8032e-05)
(-0.000498281 -0.00236371 -0.000144324)
(-0.00611168 -0.00347466 0.00200261)
(-0.0168502 -0.00381032 0.00293088)
(-0.0274249 -0.00416752 0.00275268)
(-0.0354296 -0.00479427 0.00150661)
(-0.0381919 -0.00559579 -0.000844492)
(-0.0335549 -0.00613171 -0.00384229)
(-0.021662 -0.00593839 -0.00587118)
(-0.00622566 -0.00467713 -0.004741)
(0.000843606 -0.00210507 -0.000234302)
(-0.00058141 -0.000914281 -0.00041049)
(-0.00668288 -0.0013657 0.00171957)
(-0.0182246 -0.00150391 0.00263807)
(-0.0294862 -0.00163681 0.00238372)
(-0.0378725 -0.00185871 0.000973696)
(-0.0405421 -0.00213323 -0.00161153)
(-0.0352794 -0.0023089 -0.0048051)
(-0.0224077 -0.00221593 -0.00683304)
(-0.0060255 -0.00174629 -0.00536514)
(0.00114837 -0.000805735 -0.00032299)
(-0.000581411 0.000914361 -0.000410491)
(-0.00668288 0.00136577 0.00171957)
(-0.0182246 0.00150396 0.00263807)
(-0.0294862 0.00163685 0.00238372)
(-0.0378725 0.00185874 0.000973695)
(-0.0405421 0.00213325 -0.00161153)
(-0.0352794 0.00230892 -0.0048051)
(-0.0224077 0.00221594 -0.00683304)
(-0.0060255 0.0017463 -0.00536514)
(0.00114837 0.000805742 -0.000322991)
(-0.000498282 0.0023638 -0.000144324)
(-0.00611169 0.00347473 0.00200261)
(-0.0168502 0.00381037 0.00293088)
(-0.0274249 0.00416756 0.00275268)
(-0.0354296 0.0047943 0.00150661)
(-0.0381919 0.00559581 -0.000844493)
(-0.0335549 0.00613172 -0.00384229)
(-0.021662 0.0059384 -0.00587118)
(-0.00622567 0.00467714 -0.004741)
(0.000843605 0.00210508 -0.000234302)
(-0.000346603 0.00278072 0.000280891)
(-0.00501335 0.00391816 0.00236939)
(-0.0141565 0.00424461 0.00327916)
(-0.0233197 0.0046905 0.00323512)
(-0.0304576 0.00554694 0.00230402)
(-0.0332649 0.00669393 0.000417968)
(-0.0297377 0.00758316 -0.00210734)
(-0.0197344 0.00750484 -0.00402934)
(-0.00628496 0.00591503 -0.00347784)
(0.000361584 0.00251378 -3.80328e-05)
(-0.000142464 0.00184881 0.000596913)
(-0.00343086 0.00229567 0.00232161)
(-0.010172 0.00238146 0.00309062)
(-0.017112 0.00271504 0.00319476)
(-0.0227399 0.00348035 0.00270401)
(-0.0252505 0.00457372 0.00152208)
(-0.0230032 0.00556754 -0.00020606)
(-0.0157088 0.00575364 -0.00174253)
(-0.00545241 0.00454983 -0.00176066)
(-6.26741e-07 0.00168269 0.000244751)
(3.63887e-05 0.00051899 0.00033974)
(-0.00138711 0.00049048 0.00107968)
(-0.00456354 0.000447691 0.00144525)
(-0.00796927 0.000557644 0.00160841)
(-0.010898 0.000867815 0.00157992)
(-0.0123762 0.00133841 0.00126729)
(-0.0114565 0.00180365 0.00065953)
(-0.00788612 0.00197045 -1.1601e-05)
(-0.00262369 0.00156718 -0.000210481)
(0.000115168 0.000469398 0.000386627)
(-0.000619894 -0.00148121 0.00348282)
(-0.00408972 -0.00191556 0.00699811)
(-0.0101444 -0.00195257 0.00838536)
(-0.0164021 -0.00197635 0.00859489)
(-0.0216677 -0.00214807 0.00772405)
(-0.0243503 -0.00249085 0.00554056)
(-0.0228829 -0.00284642 0.00216798)
(-0.0166191 -0.00286211 -0.00132225)
(-0.00681514 -0.00210283 -0.00274763)
(-0.000651835 -0.000323249 -0.000489122)
(-0.00196003 -0.00440176 0.00582829)
(-0.0108764 -0.00621443 0.013311)
(-0.0253572 -0.00650617 0.0159916)
(-0.0395342 -0.00658906 0.015416)
(-0.0505168 -0.00699272 0.0119502)
(-0.0551718 -0.00775002 0.00552193)
(-0.0508031 -0.00844544 -0.00290562)
(-0.0366548 -0.00819595 -0.0101865)
(-0.0158094 -0.00611857 -0.0111066)
(-0.00214654 -0.00166143 -0.00288792)
(-0.00305908 -0.00588963 0.00563105)
(-0.0161437 -0.00887865 0.0144963)
(-0.036656 -0.00945022 0.01742)
(-0.0559564 -0.009535 0.0157725)
(-0.0700271 -0.00990041 0.00996968)
(-0.0749863 -0.0105756 0.000226352)
(-0.0677686 -0.0110367 -0.0115525)
(-0.0479594 -0.0104128 -0.0204737)
(-0.0201688 -0.00791099 -0.0192753)
(-0.00252268 -0.0028744 -0.00516406)
(-0.00379876 -0.00477738 0.00474424)
(-0.0197238 -0.00741154 0.0138075)
(-0.0442399 -0.00793111 0.01655)
(-0.0666755 -0.00796499 0.0139779)
(-0.0823092 -0.00815583 0.00649042)
(-0.0868772 -0.00853 -0.00539544)
(-0.0773081 -0.0086587 -0.0190501)
(-0.0537463 -0.00804476 -0.0284003)
(-0.0218572 -0.00618164 -0.0250687)
(-0.00235702 -0.00250299 -0.00667736)
(-0.00416862 -0.00181292 0.00411457)
(-0.0215344 -0.00284401 0.0130914)
(-0.0480525 -0.00304796 0.015651)
(-0.0719677 -0.00305051 0.01256)
(-0.0882211 -0.00309777 0.00420874)
(-0.092398 -0.00320274 -0.00868632)
(-0.0815216 -0.00320904 -0.0231024)
(-0.0561063 -0.00296155 -0.0324449)
(-0.022355 -0.00229075 -0.0278926)
(-0.00216488 -0.000971232 -0.00738128)
(-0.00416862 0.00181298 0.00411457)
(-0.0215344 0.00284406 0.0130914)
(-0.0480525 0.003048 0.015651)
(-0.0719677 0.00305054 0.01256)
(-0.0882211 0.00309779 0.00420874)
(-0.092398 0.00320276 -0.00868633)
(-0.0815216 0.00320905 -0.0231024)
(-0.0561063 0.00296156 -0.0324449)
(-0.022355 0.00229076 -0.0278926)
(-0.00216488 0.000971239 -0.00738128)
(-0.00379876 0.00477745 0.00474423)
(-0.0197238 0.00741158 0.0138075)
(-0.0442399 0.00793115 0.01655)
(-0.0666755 0.00796501 0.0139779)
(-0.0823092 0.00815585 0.00649042)
(-0.0868772 0.00853002 -0.00539544)
(-0.0773081 0.00865871 -0.0190501)
(-0.0537463 0.00804477 -0.0284003)
(-0.0218572 0.00618164 -0.0250687)
(-0.00235702 0.002503 -0.00667736)
(-0.00305908 0.00588971 0.00563104)
(-0.0161437 0.00887869 0.0144963)
(-0.036656 0.00945025 0.01742)
(-0.0559564 0.00953502 0.0157725)
(-0.0700271 0.00990043 0.00996968)
(-0.0749864 0.0105756 0.000226348)
(-0.0677686 0.0110367 -0.0115525)
(-0.0479594 0.0104128 -0.0204737)
(-0.0201688 0.00791099 -0.0192753)
(-0.00252268 0.00287441 -0.00516406)
(-0.00196003 0.00440184 0.00582824)
(-0.0108764 0.00621447 0.0133109)
(-0.0253573 0.0065062 0.0159916)
(-0.0395342 0.00658908 0.015416)
(-0.0505168 0.00699273 0.0119502)
(-0.0551719 0.00775003 0.00552193)
(-0.0508031 0.00844544 -0.00290562)
(-0.0366548 0.00819596 -0.0101865)
(-0.0158094 0.00611858 -0.0111066)
(-0.00214654 0.00166144 -0.00288793)
(-0.000619917 0.00148124 0.00348265)
(-0.00408978 0.00191557 0.00699805)
(-0.0101445 0.00195257 0.00838533)
(-0.0164022 0.00197635 0.00859487)
(-0.0216677 0.00214807 0.00772404)
(-0.0243504 0.00249085 0.00554056)
(-0.0228829 0.00284642 0.00216798)
(-0.0166191 0.00286211 -0.00132225)
(-0.00681515 0.00210283 -0.00274763)
(-0.000651838 0.000323249 -0.000489125)
(-0.00109385 -0.00230349 0.0101992)
(-0.00596355 -0.00305618 0.0182899)
(-0.0138665 -0.00303038 0.0209425)
(-0.0220041 -0.00279325 0.0207018)
(-0.0292218 -0.00264195 0.0179206)
(-0.0337144 -0.00272494 0.0122195)
(-0.0332641 -0.00296399 0.00386413)
(-0.0261115 -0.00300955 -0.00495927)
(-0.0126091 -0.00223033 -0.00939708)
(-0.00218379 -5.2819e-05 -0.00463731)
(-0.00347546 -0.00653058 0.0170379)
(-0.0167931 -0.00921538 0.0335815)
(-0.0369096 -0.00922088 0.0383833)
(-0.0562301 -0.00842206 0.0356554)
(-0.0715731 -0.00775432 0.026449)
(-0.0793221 -0.00758371 0.0108772)
(-0.0757437 -0.00772712 -0.00904266)
(-0.0583233 -0.00750269 -0.0269699)
(-0.0287258 -0.00568367 -0.0313534)
(-0.00547087 -0.000953629 -0.0131006)
(-0.00544746 -0.00838328 0.0181608)
(-0.0254517 -0.0124563 0.0375759)
(-0.0545869 -0.0125117 0.0423891)
(-0.0811653 -0.0112512 0.0367795)
(-0.100654 -0.00998855 0.0221105)
(-0.108704 -0.00918001 -0.000728089)
(-0.101398 -0.00870809 -0.0277729)
(-0.0765025 -0.0081405 -0.0495937)
(-0.0369976 -0.00640702 -0.0503798)
(-0.00676719 -0.00196947 -0.0196642)
(-0.006792 -0.00663808 0.0174995)
(-0.0313721 -0.0101002 0.0373508)
(-0.066447 -0.0101263 0.04142)
(-0.0972737 -0.00897379 0.0334452)
(-0.118537 -0.00773067 0.0150153)
(-0.125734 -0.00676935 -0.0121859)
(-0.115276 -0.00609969 -0.0428794)
(-0.0855933 -0.00559303 -0.0657468)
(-0.0405875 -0.00455446 -0.0629039)
(-0.00704197 -0.00172865 -0.0237136)
(-0.00746516 -0.00248979 0.0168331)
(-0.0343521 -0.00382264 0.0365276)
(-0.0723506 -0.00382415 0.0400234)
(-0.105086 -0.00335839 0.0307585)
(-0.126895 -0.00284168 0.0104805)
(-0.133333 -0.00241852 -0.0186331)
(-0.121144 -0.00212156 -0.0506698)
(-0.089201 -0.00193184 -0.0735773)
(-0.0418452 -0.0016082 -0.0687217)
(-0.00703545 -0.000669303 -0.0255256)
(-0.00746516 0.00248984 0.0168331)
(-0.0343521 0.00382267 0.0365276)
(-0.0723507 0.00382417 0.0400234)
(-0.105086 0.00335841 0.0307585)
(-0.126895 0.00284169 0.0104805)
(-0.133333 0.00241853 -0.0186331)
(-0.121144 0.00212157 -0.0506698)
(-0.089201 0.00193185 -0.0735773)
(-0.0418452 0.0016082 -0.0687217)
(-0.00703545 0.000669308 -0.0255256)
(-0.006792 0.00663813 0.0174995)
(-0.0313721 0.0101002 0.0373507)
(-0.066447 0.0101263 0.04142)
(-0.0972738 0.00897381 0.0334452)
(-0.118537 0.00773068 0.0150153)
(-0.125734 0.00676936 -0.0121859)
(-0.115276 0.0060997 -0.0428794)
(-0.0855933 0.00559303 -0.0657468)
(-0.0405876 0.00455446 -0.0629039)
(-0.00704197 0.00172865 -0.0237136)
(-0.00544746 0.00838333 0.0181608)
(-0.0254517 0.0124563 0.0375759)
(-0.0545869 0.0125117 0.042389)
(-0.0811653 0.0112512 0.0367795)
(-0.100654 0.00998856 0.0221105)
(-0.108704 0.00918002 -0.000728093)
(-0.101398 0.0087081 -0.0277729)
(-0.0765025 0.00814051 -0.0495937)
(-0.0369976 0.00640702 -0.0503798)
(-0.00676719 0.00196948 -0.0196642)
(-0.00347546 0.00653062 0.0170378)
(-0.0167931 0.0092154 0.0335815)
(-0.0369096 0.00922089 0.0383832)
(-0.0562302 0.00842207 0.0356554)
(-0.0715731 0.00775433 0.026449)
(-0.0793222 0.00758372 0.0108772)
(-0.0757437 0.00772712 -0.00904266)
(-0.0583233 0.0075027 -0.0269699)
(-0.0287258 0.00568367 -0.0313534)
(-0.00547088 0.000953632 -0.0131006)
(-0.00109386 0.0023035 0.0101991)
(-0.00596357 0.00305618 0.0182899)
(-0.0138665 0.00303038 0.0209424)
(-0.0220041 0.00279325 0.0207018)
(-0.0292219 0.00264195 0.0179205)
(-0.0337145 0.00272494 0.0122195)
(-0.0332641 0.00296399 0.00386412)
(-0.0261116 0.00300955 -0.00495928)
(-0.0126091 0.00223034 -0.00939709)
(-0.00218379 5.28196e-05 -0.00463731)
(-0.00145631 -0.00301228 0.0190481)
(-0.00727428 -0.00391668 0.0324795)
(-0.016365 -0.00361886 0.0361447)
(-0.0259553 -0.00287049 0.0350044)
(-0.03539 -0.00213798 0.0298696)
(-0.0429437 -0.0017541 0.0200082)
(-0.0455806 -0.00184944 0.00532621)
(-0.0394898 -0.00223166 -0.0112479)
(-0.0226163 -0.0019762 -0.021351)
(-0.00549128 0.000132796 -0.0136508)
(-0.00467494 -0.00833835 0.0318777)
(-0.0212985 -0.0113907 0.059097)
(-0.0455182 -0.0104584 0.0655836)
(-0.0688868 -0.00795222 0.0597465)
(-0.0888243 -0.00531601 0.0437124)
(-0.101795 -0.00348134 0.0174206)
(-0.102759 -0.0028664 -0.0170507)
(-0.0858387 -0.00344478 -0.0508049)
(-0.048743 -0.00350535 -0.0638392)
(-0.0117901 -0.000161991 -0.0331319)
(-0.00733747 -0.0104452 0.0351402)
(-0.0326417 -0.0148868 0.0670861)
(-0.0681378 -0.0134936 0.0732203)
(-0.100217 -0.00967953 0.0625205)
(-0.12499 -0.00547112 0.0379136)
(-0.138358 -0.00215333 0.000535865)
(-0.13533 -0.00059098 -0.0451436)
(-0.110211 -0.00116274 -0.086181)
(-0.0615645 -0.00229011 -0.0959078)
(-0.014479 -0.000658434 -0.0460069)
(-0.00914876 -0.00813235 0.0352685)
(-0.0403494 -0.0118114 0.0680813)
(-0.0831017 -0.010557 0.0728389)
(-0.119898 -0.0072058 0.058391)
(-0.14619 -0.00345729 0.0283474)
(-0.158162 -0.000413535 -0.0149842)
(-0.151514 0.00100527 -0.0655801)
(-0.12134 0.00043951 -0.108662)
(-0.0669959 -0.000933324 -0.114714)
(-0.0154113 -0.00056109 -0.0531428)
(-0.0100482 -0.00302352 0.034873)
(-0.0441805 -0.00442036 0.0675592)
(-0.090408 -0.0039165 0.0713353)
(-0.129154 -0.00259678 0.0549302)
(-0.15564 -0.00111987 0.0224097)
(-0.16641 7.934e-05 -0.0232311)
(-0.157792 0.000631673 -0.0753705)
(-0.125418 0.000383212 -0.11869)
(-0.0689186 -0.000211263 -0.122769)
(-0.015692 -0.000211255 -0.0561171)
(-0.0100482 0.00302357 0.034873)
(-0.0441805 0.00442038 0.0675592)
(-0.090408 0.00391653 0.0713353)
(-0.129154 0.0025968 0.0549302)
(-0.15564 0.00111988 0.0224097)
(-0.16641 -7.93298e-05 -0.0232311)
(-0.157792 -0.000631665 -0.0753705)
(-0.125418 -0.000383207 -0.11869)
(-0.0689186 0.000211267 -0.122769)
(-0.015692 0.000211259 -0.0561171)
(-0.00914876 0.00813239 0.0352685)
(-0.0403494 0.0118114 0.0680813)
(-0.0831017 0.010557 0.0728389)
(-0.119898 0.00720582 0.058391)
(-0.14619 0.0034573 0.0283474)
(-0.158162 0.000413545 -0.0149842)
(-0.151514 -0.00100526 -0.0655801)
(-0.12134 -0.000439505 -0.108662)
(-0.0669959 0.000933328 -0.114714)
(-0.0154113 0.000561094 -0.0531428)
(-0.00733747 0.0104452 0.0351402)
(-0.0326417 0.0148869 0.067086)
(-0.0681378 0.0134937 0.0732203)
(-0.100217 0.00967954 0.0625205)
(-0.12499 0.00547113 0.0379136)
(-0.138358 0.00215334 0.000535861)
(-0.13533 0.000590986 -0.0451436)
(-0.110211 0.00116274 -0.086181)
(-0.0615645 0.00229011 -0.0959078)
(-0.014479 0.000658438 -0.0460069)
(-0.00467494 0.00833837 0.0318777)
(-0.0212985 0.0113907 0.059097)
(-0.0455182 0.0104584 0.0655836)
(-0.0688868 0.00795223 0.0597465)
(-0.0888243 0.00531602 0.0437124)
(-0.101795 0.00348135 0.0174206)
(-0.102759 0.0028664 -0.0170507)
(-0.0858387 0.00344479 -0.0508049)
(-0.048743 0.00350535 -0.0638392)
(-0.0117901 0.000161993 -0.0331319)
(-0.00145631 0.00301228 0.0190481)
(-0.0072743 0.00391669 0.0324795)
(-0.016365 0.00361887 0.0361447)
(-0.0259553 0.0028705 0.0350044)
(-0.0353901 0.00213798 0.0298696)
(-0.0429437 0.0017541 0.0200082)
(-0.0455806 0.00184944 0.00532621)
(-0.0394899 0.00223166 -0.0112479)
(-0.0226163 0.0019762 -0.021351)
(-0.00549128 -0.000132795 -0.0136508)
(-0.00197973 -0.00355439 0.0297975)
(-0.00849723 -0.00440894 0.0486339)
(-0.0179263 -0.00356445 0.0525768)
(-0.0281978 -0.00194319 0.0499286)
(-0.0397709 -0.000204586 0.0421384)
(-0.0515519 0.00110479 0.0278597)
(-0.0597596 0.0014226 0.00578108)
(-0.0577083 0.000452077 -0.0213903)
(-0.0392155 -0.000740205 -0.0415042)
(-0.012089 4.054e-05 -0.0315922)
(-0.00586296 -0.00965246 0.0497251)
(-0.0247612 -0.0125046 0.0882402)
(-0.051064 -0.00986513 0.0955712)
(-0.0766699 -0.00462833 0.0859705)
(-0.100595 0.0011578 0.0629963)
(-0.12024 0.00577882 0.0257185)
(-0.129457 0.00759276 -0.0253673)
(-0.118108 0.00535275 -0.0807338)
(-0.0779966 0.00104305 -0.111434)
(-0.0232051 0.000119527 -0.0697734)
(-0.00891901 -0.0118433 0.0556583)
(-0.0376616 -0.0159108 0.101124)
(-0.0764339 -0.0120893 0.10797)
(-0.111198 -0.00446443 0.0920395)
(-0.13984 0.00398736 0.0582893)
(-0.159502 0.0107061 0.0071745)
(-0.164439 0.0133519 -0.0586744)
(-0.14504 0.0102456 -0.125654)
(-0.0942366 0.00376074 -0.156506)
(-0.02761 0.000216288 -0.0915129)
(-0.0109409 -0.00908254 0.0569404)
(-0.0462203 -0.0123846 0.103944)
(-0.092705 -0.00909911 0.109049)
(-0.13187 -0.00263758 0.0886164)
(-0.161158 0.00443036 0.0488068)
(-0.178352 0.00988562 -0.00860323)
(-0.179112 0.0117089 -0.0798738)
(-0.155178 0.00885741 -0.150244)
(-0.100302 0.00346596 -0.179439)
(-0.0292932 0.0002337 -0.102207)
(-0.0119216 -0.00334946 0.0570182)
(-0.0503733 -0.00458751 0.104055)
(-0.100402 -0.00330468 0.10794)
(-0.141123 -0.000810657 0.0852764)
(-0.169924 0.00189 0.0429757)
(-0.185297 0.00393073 -0.0164987)
(-0.183917 0.00451754 -0.0890849)
(-0.158294 0.00336549 -0.160103)
(-0.102343 0.00133536 -0.188384)
(-0.0299152 0.000101152 -0.10636)
(-0.0119216 0.00334949 0.0570182)
(-0.0503733 0.00458753 0.104055)
(-0.100402 0.0033047 0.10794)
(-0.141123 0.000810671 0.0852764)
(-0.169924 -0.00188998 0.0429757)
(-0.185297 -0.00393072 -0.0164987)
(-0.183917 -0.00451753 -0.0890849)
(-0.158294 -0.00336549 -0.160103)
(-0.102343 -0.00133536 -0.188384)
(-0.0299152 -0.000101147 -0.10636)
(-0.0109409 0.00908256 0.0569404)
(-0.0462203 0.0123846 0.103944)
(-0.092705 0.00909913 0.109049)
(-0.13187 0.00263759 0.0886164)
(-0.161158 -0.00443035 0.0488068)
(-0.178352 -0.00988561 -0.00860323)
(-0.179112 -0.0117089 -0.0798738)
(-0.155178 -0.00885741 -0.150244)
(-0.100302 -0.00346596 -0.179439)
(-0.0292932 -0.000233696 -0.102207)
(-0.00891901 0.0118434 0.0556582)
(-0.0376616 0.0159108 0.101124)
(-0.076434 0.0120893 0.107969)
(-0.111198 0.00446444 0.0920395)
(-0.13984 -0.00398735 0.0582893)
(-0.159502 -0.0107061 0.00717449)
(-0.164439 -0.0133519 -0.0586744)
(-0.14504 -0.0102456 -0.125654)
(-0.0942366 -0.00376074 -0.156506)
(-0.02761 -0.000216284 -0.0915129)
(-0.00586296 0.00965247 0.0497251)
(-0.0247612 0.0125046 0.0882401)
(-0.051064 0.00986514 0.0955712)
(-0.0766699 0.00462834 0.0859705)
(-0.100595 -0.0011578 0.0629963)
(-0.12024 -0.00577882 0.0257185)
(-0.129457 -0.00759276 -0.0253673)
(-0.118108 -0.00535274 -0.0807338)
(-0.0779966 -0.00104305 -0.111434)
(-0.0232051 -0.000119524 -0.0697734)
(-0.00197974 0.0035544 0.0297974)
(-0.00849724 0.00440895 0.0486338)
(-0.0179263 0.00356445 0.0525768)
(-0.0281978 0.00194319 0.0499286)
(-0.039771 0.000204588 0.0421384)
(-0.0515519 -0.00110478 0.0278597)
(-0.0597596 -0.0014226 0.00578108)
(-0.0577083 -0.000452076 -0.0213903)
(-0.0392155 0.000740207 -0.0415042)
(-0.012089 -4.05391e-05 -0.0315922)
(-0.00329267 -0.0039641 0.0426178)
(-0.0106354 -0.00452617 0.0653896)
(-0.0189183 -0.00281247 0.0678816)
(-0.0280681 0.000108361 0.0626555)
(-0.0404409 0.00344995 0.0519793)
(-0.0564571 0.00639612 0.0336121)
(-0.072365 0.00779438 0.00413635)
(-0.0784515 0.00628034 -0.0360146)
(-0.0627068 0.00250951 -0.0717081)
(-0.0228998 -0.000320981 -0.0640022)
(-0.00778279 -0.0104966 0.0702303)
(-0.0280638 -0.0125431 0.118652)
(-0.0531121 -0.00744536 0.125)
(-0.0769141 0.00146013 0.111014)
(-0.101297 0.0115378 0.082016)
(-0.125854 0.0201524 0.0356164)
(-0.144683 0.0239606 -0.0310988)
(-0.144273 0.0194634 -0.11188)
(-0.110526 0.00820626 -0.171854)
(-0.0388863 -0.000806805 -0.13093)
(-0.0108332 -0.0125672 0.0788151)
(-0.0409313 -0.0155965 0.136744)
(-0.0781399 -0.00861113 0.143119)
(-0.110043 0.00361123 0.122512)
(-0.137485 0.0170047 0.0822517)
(-0.16016 0.0276208 0.0212682)
(-0.173301 0.0311282 -0.0619689)
(-0.165076 0.0242561 -0.158469)
(-0.124374 0.0100789 -0.225303)
(-0.0436491 -0.000495506 -0.163649)
(-0.0127207 -0.00947608 0.0812072)
(-0.0490802 -0.0119317 0.141595)
(-0.0933891 -0.0061746 0.146446)
(-0.128471 0.0037648 0.121585)
(-0.154905 0.0143089 0.0759471)
(-0.173496 0.022059 0.00961268)
(-0.181623 0.0237582 -0.0786837)
(-0.169604 0.0176665 -0.179937)
(-0.128018 0.00705319 -0.248778)
(-0.0454185 -0.00020052 -0.178112)
(-0.0135963 -0.00346361 0.0817439)
(-0.0528882 -0.00437826 0.142453)
(-0.100278 -0.00218122 0.146158)
(-0.136158 0.00157111 0.119304)
(-0.161227 0.00546918 0.0717606)
(-0.177211 0.00819097 0.00412663)
(-0.183017 0.00861034 -0.0850987)
(-0.170089 0.0062263 -0.187602)
(-0.129119 0.00242639 -0.25725)
(-0.0461725 -3.99352e-05 -0.183503)
(-0.0135963 0.00346363 0.0817439)
(-0.0528882 0.00437828 0.142453)
(-0.100278 0.00218123 0.146158)
(-0.136158 -0.0015711 0.119304)
(-0.161227 -0.00546917 0.0717606)
(-0.177211 -0.00819097 0.00412663)
(-0.183017 -0.00861034 -0.0850987)
(-0.170089 -0.00622629 -0.187602)
(-0.129119 -0.00242639 -0.25725)
(-0.0461725 3.99391e-05 -0.183503)
(-0.0127207 0.0094761 0.0812072)
(-0.0490802 0.0119317 0.141595)
(-0.0933891 0.00617461 0.146446)
(-0.128471 -0.00376479 0.121585)
(-0.154905 -0.0143089 0.0759471)
(-0.173496 -0.022059 0.00961268)
(-0.181623 -0.0237582 -0.0786837)
(-0.169604 -0.0176665 -0.179937)
(-0.128018 -0.00705319 -0.248778)
(-0.0454185 0.000200523 -0.178112)
(-0.0108332 0.0125672 0.0788151)
(-0.0409313 0.0155965 0.136744)
(-0.0781399 0.00861113 0.143119)
(-0.110043 -0.00361123 0.122512)
(-0.137485 -0.0170047 0.0822517)
(-0.16016 -0.0276208 0.0212682)
(-0.173301 -0.0311282 -0.0619689)
(-0.165076 -0.0242561 -0.158469)
(-0.124374 -0.0100789 -0.225303)
(-0.0436491 0.000495509 -0.163649)
(-0.00778279 0.0104966 0.0702303)
(-0.0280638 0.0125431 0.118652)
(-0.0531121 0.00744537 0.125)
(-0.0769141 -0.00146012 0.111014)
(-0.101297 -0.0115378 0.082016)
(-0.125854 -0.0201524 0.0356164)
(-0.144683 -0.0239606 -0.0310988)
(-0.144273 -0.0194634 -0.11188)
(-0.110526 -0.00820625 -0.171854)
(-0.0388863 0.000806808 -0.13093)
(-0.00329268 0.0039641 0.0426178)
(-0.0106354 0.00452618 0.0653896)
(-0.0189183 0.00281247 0.0678816)
(-0.0280681 -0.000108359 0.0626555)
(-0.0404409 -0.00344995 0.0519793)
(-0.0564571 -0.00639612 0.0336121)
(-0.072365 -0.00779438 0.00413634)
(-0.0784515 -0.00628034 -0.0360146)
(-0.0627068 -0.00250951 -0.0717081)
(-0.0228998 0.000320982 -0.0640022)
(-0.00703046 -0.00458666 0.0595511)
(-0.0160949 -0.00469513 0.0812119)
(-0.0199258 -0.00185005 0.0787482)
(-0.0239798 0.00267296 0.0690349)
(-0.0332774 0.00798328 0.0551962)
(-0.0507111 0.0131489 0.0338133)
(-0.0743908 0.0163557 -0.00120364)
(-0.0924867 0.0146535 -0.0545142)
(-0.0877463 0.00728327 -0.110901)
(-0.0362272 -0.00138244 -0.117539)
(-0.0125639 -0.0115034 0.09505)
(-0.0340407 -0.0123839 0.147303)
(-0.0517271 -0.00446332 0.148492)
(-0.0657519 0.00828612 0.1289)
(-0.0818852 0.0227941 0.0956927)
(-0.103355 0.0358598 0.0449472)
(-0.12751 0.0424805 -0.0307271)
(-0.140364 0.0359679 -0.134396)
(-0.127079 0.0158899 -0.233444)
(-0.0500277 -0.00440953 -0.221331)
(-0.0152683 -0.0131617 0.105391)
(-0.04509 -0.0149238 0.169792)
(-0.072929 -0.00481413 0.172276)
(-0.0922626 0.0114501 0.147349)
(-0.107973 0.0290149 0.10446)
(-0.123642 0.0430832 0.0407711)
(-0.138758 0.0477453 -0.0503695)
(-0.142789 0.0372559 -0.171927)
(-0.128338 0.0144001 -0.285944)
(-0.0509286 -0.00428805 -0.2635)
(-0.0167028 -0.00966349 0.108219)
(-0.0515082 -0.0111779 0.176097)
(-0.0848499 -0.00322374 0.177944)
(-0.105593 0.00941291 0.150053)
(-0.118473 0.0224796 0.103451)
(-0.128277 0.0319507 0.036021)
(-0.137223 0.0336249 -0.0590358)
(-0.137793 0.024586 -0.186228)
(-0.126214 0.00860535 -0.306184)
(-0.0513829 -0.00271438 -0.280557)
(-0.0173108 -0.00348657 0.108895)
(-0.0543355 -0.00405765 0.177423)
(-0.0898755 -0.00109097 0.178522)
(-0.110569 0.00357232 0.149307)
(-0.121368 0.00827043 0.101669)
(-0.128081 0.0114706 0.0337333)
(-0.134638 0.0117266 -0.0618769)
(-0.134842 0.00826683 -0.190879)
(-0.125583 0.0027441 -0.313295)
(-0.0519025 -0.000883001 -0.286857)
(-0.0173108 0.00348658 0.108895)
(-0.0543355 0.00405766 0.177423)
(-0.0898755 0.00109098 0.178522)
(-0.110569 -0.00357232 0.149307)
(-0.121368 -0.00827042 0.101669)
(-0.128081 -0.0114706 0.0337333)
(-0.134638 -0.0117266 -0.0618769)
(-0.134842 -0.00826683 -0.190879)
(-0.125583 -0.0027441 -0.313295)
(-0.0519025 0.000883004 -0.286857)
(-0.0167028 0.00966351 0.108219)
(-0.0515082 0.0111779 0.176097)
(-0.0848499 0.00322374 0.177944)
(-0.105593 -0.00941291 0.150053)
(-0.118473 -0.0224796 0.103451)
(-0.128277 -0.0319507 0.036021)
(-0.137223 -0.0336249 -0.0590358)
(-0.137793 -0.024586 -0.186228)
(-0.126214 -0.00860534 -0.306184)
(-0.0513829 0.00271438 -0.280557)
(-0.0152683 0.0131617 0.105391)
(-0.04509 0.0149238 0.169792)
(-0.072929 0.00481414 0.172276)
(-0.0922626 -0.0114501 0.147349)
(-0.107973 -0.0290149 0.10446)
(-0.123642 -0.0430832 0.0407711)
(-0.138758 -0.0477453 -0.0503695)
(-0.142789 -0.0372559 -0.171927)
(-0.128338 -0.0144001 -0.285944)
(-0.0509286 0.00428805 -0.2635)
(-0.0125639 0.0115034 0.09505)
(-0.0340407 0.0123839 0.147303)
(-0.0517271 0.00446333 0.148492)
(-0.0657519 -0.00828611 0.1289)
(-0.0818852 -0.0227941 0.0956927)
(-0.103355 -0.0358598 0.0449472)
(-0.12751 -0.0424805 -0.0307271)
(-0.140364 -0.0359679 -0.134396)
(-0.127079 -0.0158899 -0.233444)
(-0.0500277 0.00440953 -0.221331)
(-0.00703046 0.00458667 0.0595511)
(-0.0160949 0.00469513 0.0812119)
(-0.0199258 0.00185005 0.0787482)
(-0.0239798 -0.00267296 0.0690348)
(-0.0332774 -0.00798327 0.0551962)
(-0.0507111 -0.0131489 0.0338133)
(-0.0743908 -0.0163557 -0.00120364)
(-0.0924867 -0.0146535 -0.0545142)
(-0.0877463 -0.00728327 -0.110901)
(-0.0362272 0.00138244 -0.117539)
(-0.0164815 -0.0062647 0.0819435)
(-0.0280435 -0.00637377 0.0927257)
(-0.017622 -0.00253944 0.080915)
(-0.00831469 0.003456 0.0645906)
(-0.00691187 0.0104461 0.0476412)
(-0.0186015 0.0177094 0.0254644)
(-0.0455064 0.023276 -0.0112745)
(-0.0762262 0.0218563 -0.0739846)
(-0.0965029 0.0102214 -0.153293)
(-0.0418454 -0.00614134 -0.196215)
(-0.0254467 -0.0143759 0.122873)
(-0.0492492 -0.0150758 0.167633)
(-0.0442792 -0.00535709 0.158643)
(-0.0330602 0.00977737 0.13136)
(-0.0255527 0.0269056 0.0962151)
(-0.0282677 0.0432493 0.0484269)
(-0.0458874 0.0537587 -0.0238702)
(-0.067677 0.0473682 -0.137315)
(-0.0947338 0.0188237 -0.275074)
(-0.0358159 -0.0145329 -0.327027)
(-0.0282228 -0.015216 0.132896)
(-0.0586621 -0.0168871 0.192718)
(-0.060374 -0.00551484 0.187125)
(-0.0498915 0.0120179 0.156541)
(-0.0372623 0.0309009 0.114398)
(-0.0289912 0.0468458 0.0568428)
(-0.0329558 0.05414 -0.0272426)
(-0.0428417 0.0432722 -0.157092)
(-0.0742562 0.0136442 -0.31551)
(-0.0274066 -0.0126789 -0.368366)
(-0.0292279 -0.0106339 0.135173)
(-0.0630014 -0.0120821 0.199569)
(-0.0681344 -0.00357231 0.194837)
(-0.0573831 0.00928446 0.163063)
(-0.0410386 0.0225415 0.118968)
(-0.0261038 0.0327128 0.0590547)
(-0.0231719 0.0358725 -0.0278842)
(-0.0290064 0.0266991 -0.163149)
(-0.0657914 0.00728513 -0.329616)
(-0.0256182 -0.0075142 -0.383628)
(-0.0295458 -0.00374407 0.135612)
(-0.0646181 -0.00428821 0.200957)
(-0.0709188 -0.00118708 0.196124)
(-0.0596046 0.00343115 0.163869)
(-0.041301 0.00806201 0.119453)
(-0.0235215 0.011414 0.0593889)
(-0.0183768 0.0121624 -0.0279941)
(-0.0239147 0.00871787 -0.165173)
(-0.0638999 0.00221899 -0.33475)
(-0.0258132 -0.0023684 -0.389267)
(-0.0295458 0.00374408 0.135612)
(-0.0646181 0.00428822 0.200957)
(-0.0709188 0.00118709 0.196124)
(-0.0596046 -0.00343114 0.163869)
(-0.041301 -0.00806201 0.119453)
(-0.0235215 -0.011414 0.0593889)
(-0.0183768 -0.0121624 -0.0279941)
(-0.0239147 -0.00871786 -0.165173)
(-0.0638999 -0.00221899 -0.33475)
(-0.0258132 0.0023684 -0.389267)
(-0.0292279 0.0106339 0.135173)
(-0.0630014 0.0120821 0.199569)
(-0.0681344 0.00357232 0.194837)
(-0.0573831 -0.00928445 0.163063)
(-0.0410386 -0.0225415 0.118968)
(-0.0261038 -0.0327128 0.0590547)
(-0.0231719 -0.0358725 -0.0278842)
(-0.0290064 -0.0266991 -0.163149)
(-0.0657914 -0.00728512 -0.329616)
(-0.0256182 0.0075142 -0.383628)
(-0.0282228 0.0152161 0.132896)
(-0.0586621 0.0168871 0.192718)
(-0.060374 0.00551485 0.187125)
(-0.0498915 -0.0120179 0.156541)
(-0.0372623 -0.0309009 0.114398)
(-0.0289912 -0.0468458 0.0568428)
(-0.0329558 -0.05414 -0.0272426)
(-0.0428417 -0.0432722 -0.157092)
(-0.0742562 -0.0136442 -0.31551)
(-0.0274066 0.0126789 -0.368366)
(-0.0254467 0.0143759 0.122873)
(-0.0492492 0.0150758 0.167633)
(-0.0442792 0.00535709 0.158643)
(-0.0330602 -0.00977737 0.13136)
(-0.0255527 -0.0269056 0.0962151)
(-0.0282677 -0.0432493 0.0484269)
(-0.0458874 -0.0537587 -0.0238702)
(-0.067677 -0.0473682 -0.137315)
(-0.0947338 -0.0188237 -0.275074)
(-0.0358159 0.0145329 -0.327027)
(-0.0164815 0.0062647 0.0819435)
(-0.0280435 0.00637377 0.0927257)
(-0.017622 0.00253944 0.080915)
(-0.0083147 -0.003456 0.0645906)
(-0.00691188 -0.0104461 0.0476412)
(-0.0186015 -0.0177094 0.0254644)
(-0.0455064 -0.023276 -0.0112745)
(-0.0762262 -0.0218563 -0.0739846)
(-0.0965029 -0.0102214 -0.153293)
(-0.0418454 0.00614135 -0.196215)
(-0.0238304 -0.0112236 0.150166)
(-0.0201749 -0.012122 0.0981677)
(0.0283643 -0.00748673 0.0628899)
(0.0626976 -0.000891282 0.0414792)
(0.0834191 0.00653136 0.0249741)
(0.085522 0.0144091 0.00709553)
(0.0631478 0.0216058 -0.0215159)
(0.0255697 0.0207797 -0.0790507)
(-0.0421195 0.00503094 -0.174238)
(-0.00680283 -0.0179581 -0.259863)
(-0.0424655 -0.0230252 0.209704)
(-0.0413341 -0.0262062 0.169972)
(0.0237962 -0.0167642 0.128382)
(0.079763 -0.00246071 0.0961054)
(0.124446 0.0138517 0.0662892)
(0.152276 0.030335 0.0323397)
(0.150365 0.0445203 -0.0171757)
(0.131176 0.0424939 -0.107597)
(0.0402354 0.00982979 -0.256563)
(0.0437809 -0.0321199 -0.369696)
(-0.0477305 -0.0209541 0.219962)
(-0.0508534 -0.0259733 0.190593)
(0.0134034 -0.0171318 0.152072)
(0.0740637 -0.00273739 0.118489)
(0.127712 0.0135933 0.0848247)
(0.169504 0.0289471 0.0449873)
(0.181792 0.0400485 -0.0115145)
(0.176955 0.0352634 -0.110626)
(0.0811364 0.00554099 -0.275346)
(0.063266 -0.0228733 -0.395293)
(-0.048754 -0.0134282 0.221)
(-0.0536336 -0.0172557 0.194776)
(0.00939262 -0.0112462 0.157807)
(0.071299 -0.00151431 0.12446)
(0.12802 0.00921081 0.0901946)
(0.175026 0.0188008 0.0489287)
(0.192173 0.0248156 -0.00977357)
(0.191425 0.0206963 -0.111794)
(0.0912536 0.00318305 -0.281966)
(0.0663438 -0.0120254 -0.403968)
(-0.0488044 -0.00453464 0.220807)
(-0.0540722 -0.00590631 0.195114)
(0.00869363 -0.00379361 0.158462)
(0.0711829 -0.000424021 0.125242)
(0.128968 0.00320664 0.0910534)
(0.177547 0.0063524 0.0497055)
(0.195798 0.00816841 -0.00954109)
(0.195264 0.00665111 -0.112686)
(0.0924241 0.00106215 -0.284724)
(0.0659809 -0.0035821 -0.40713)
(-0.0488044 0.00453465 0.220807)
(-0.0540722 0.00590632 0.195114)
(0.00869363 0.00379362 0.158462)
(0.0711829 0.000424025 0.125242)
(0.128968 -0.00320664 0.0910534)
(0.177547 -0.0063524 0.0497055)