/*--------------------------------*- C++ -*----------------------------------*\
  =========                 |
  \\      /  F ield         | OpenFOAM: The Open Source CFD Toolbox
   \\    /   O peration     | Website:  https://openfoam.org
    \\  /    A nd           | Version:  9
     \\/     M anipulation  |
\*---------------------------------------------------------------------------*/
FoamFile
{
    format      ascii;
    class       volScalarField;
    location    "0.87";
    object      p;
}
// * * * * * * * * * * * * * * * * * * * * * * * * * * * * * * * * * * * * * //

dimensions      [0 2 -2 0 0 0 0];

internalField   nonuniform List<scalar> 
1000
(
4.06821e-06
-0.000488804
-0.000183486
0.000872347
0.00275579
0.00534055
0.00816464
0.010463
0.0115312
0.0106727
0.000175546
-0.000734251
-0.000537508
0.000564806
0.00263214
0.00551838
0.00868618
0.0112034
0.0122134
0.0108029
0.000964521
-0.000223885
-6.62672e-05
0.00113778
0.00345582
0.00671369
0.0102644
0.012926
0.0136848
0.0115286
0.00181935
0.000444471
0.000588109
0.00189396
0.0044414
0.00803968
0.0118566
0.0145715
0.0150662
0.0123137
0.00235689
0.000893577
0.00103601
0.00240232
0.00507592
0.00884829
0.0128111
0.0155352
0.0158708
0.0128019
0.00235691
0.000893594
0.00103603
0.00240233
0.00507593
0.0088483
0.0128111
0.0155352
0.0158708
0.0128019
0.00181943
0.000444526
0.000588152
0.001894
0.00444143
0.0080397
0.0118566
0.0145715
0.0150663
0.0123137
0.000964686
-0.000223785
-6.61932e-05
0.00113784
0.00345586
0.00671371
0.0102644
0.012926
0.0136848
0.0115286
0.000175859
-0.000734096
-0.000537403
0.000564876
0.00263219
0.00551842
0.0086862
0.0112034
0.0122134
0.0108029
5.08572e-06
-0.000488528
-0.000183341
0.000872433
0.00275584
0.00534059
0.00816467
0.010463
0.0115312
0.0106727
0.000418166
-1.75375e-05
0.000306381
0.00122968
0.00285951
0.00514973
0.00773491
0.00994454
0.0110338
0.00988796
0.000958585
3.01581e-05
0.000271408
0.00118674
0.00285361
0.00523954
0.00796952
0.0103058
0.0113551
0.0095535
0.00219003
0.000847134
0.00101717
0.00192682
0.00366189
0.00619687
0.00916165
0.0115756
0.0124176
0.0098616
0.0033626
0.00170055
0.00180573
0.00271192
0.00452006
0.00722305
0.0103595
0.0128027
0.0134347
0.0103259
0.00406192
0.00222911
0.00229744
0.00320154
0.00505118
0.00785544
0.0110786
0.0135231
0.0140303
0.0106476
0.00406194
0.00222912
0.00229746
0.00320154
0.00505119
0.00785545
0.0110786
0.0135231
0.0140303
0.0106476
0.00336265
0.0017006
0.00180576
0.00271195
0.00452008
0.00722306
0.0103595
0.0128027
0.0134347
0.0103259
0.00219013
0.00084721
0.00101723
0.00192686
0.00366192
0.0061969
0.00916167
0.0115756
0.0124176
0.00986161
0.000958749
3.02682e-05
0.00027149
0.0011868
0.00285365
0.00523956
0.00796954
0.0103058
0.0113552
0.00955351
0.000418439
-1.73837e-05
0.000306485
0.00122975
0.00285956
0.00514977
0.00773493
0.00994456
0.0110338
0.00988797
-0.000932208
-0.00150215
-0.00130339
-0.000589587
0.000856884
0.00316602
0.00611835
0.00902548
0.0107905
0.00947793
-6.77121e-05
-0.00129905
-0.00118603
-0.000474529
0.00101342
0.00344437
0.00659599
0.00967594
0.0113668
0.00890437
0.00168828
-0.000140181
-0.000161045
0.000451256
0.00191059
0.00444356
0.00781312
0.0110245
0.012516
0.00900396
0.00329244
0.00100473
0.000852872
0.00136665
0.00280559
0.00544198
0.00894475
0.0122048
0.0134938
0.0092795
0.00422732
0.00169405
0.0014649
0.00192059
0.00334875
0.00603261
0.00959852
0.012863
0.0140326
0.00949229
0.00422733
0.00169406
0.00146491
0.00192059
0.00334876
0.00603261
0.00959853
0.012863
0.0140326
0.00949229
0.00329249
0.00100476
0.000852901
0.00136667
0.00280561
0.005442
0.00894476
0.0122048
0.0134938
0.0092795
0.00168835
-0.000140123
-0.000160997
0.000451293
0.00191061
0.00444358
0.00781313
0.0110245
0.012516
0.00900397
-6.7605e-05
-0.00129897
-0.00118597
-0.000474482
0.00101346
0.0034444
0.006596
0.00967595
0.0113668
0.00890439
-0.000932066
-0.00150205
-0.00130331
-0.000589531
0.000856924
0.00316605
0.00611837
0.00902549
0.0107905
0.00947795
-0.00444043
-0.00513823
-0.00511976
-0.00469089
-0.00344841
-0.00095397
0.00285489
0.00735321
0.0108234
0.0099261
-0.00325392
-0.00476354
-0.00483311
-0.00438832
-0.00307153
-0.000397459
0.00371551
0.00854718
0.011947
0.00931063
-0.000968049
-0.00325622
-0.00356938
-0.00338232
-0.00226296
0.000422258
0.00468815
0.00978307
0.0131171
0.00930703
0.00107833
-0.00180613
-0.00235839
-0.00242675
-0.00150515
0.00110434
0.0054905
0.0107117
0.0139444
0.00943942
0.0022558
-0.000945955
-0.00163904
-0.00185612
-0.00104332
0.00152593
0.00592809
0.0111806
0.0143497
0.00955312
0.00225581
-0.000945947
-0.00163903
-0.00185611
-0.00104331
0.00152594
0.00592809
0.0111806
0.0143497
0.00955312
0.00107836
-0.00180611
-0.00235837
-0.00242674
-0.00150513
0.00110435
0.0054905
0.0107118
0.0139444
0.00943943
-0.000967998
-0.00325618
-0.00356935
-0.0033823
-0.00226294
0.000422277
0.00468817
0.00978309
0.0131171
0.00930704
-0.00325385
-0.00476348
-0.00483306
-0.00438829
-0.0030715
-0.000397438
0.00371552
0.00854719
0.011947
0.00931063
-0.00444034
-0.00513816
-0.00511971
-0.00469085
-0.00344837
-0.000953947
0.00285491
0.00735322
0.0108234
0.00992609
-0.010788
-0.0114407
-0.0115229
-0.0113895
-0.0104094
-0.00764971
-0.00248337
0.00477799
0.0116102
0.0128112
-0.00932508
-0.0109128
-0.0111033
-0.0109726
-0.00992652
-0.00704393
-0.00157593
0.00624001
0.0132406
0.0125846
-0.00662764
-0.0091583
-0.00977105
-0.0101709
-0.00966623
-0.00711004
-0.00165455
0.00660274
0.0139273
0.0125879
-0.00425722
-0.00750165
-0.00851251
-0.00940553
-0.00937259
-0.00710072
-0.00174219
0.00673342
0.0142488
0.0126372
-0.00291027
-0.00653091
-0.00777052
-0.00893807
-0.00916028
-0.00707914
-0.00177455
0.00676561
0.0143508
0.0126659
-0.00291026
-0.0065309
-0.00777051
-0.00893807
-0.00916027
-0.00707914
-0.00177455
0.00676561
0.0143508
0.0126659
-0.0042572
-0.00750163
-0.00851249
-0.00940552
-0.00937258
-0.00710071
-0.00174218
0.00673343
0.0142488
0.0126372
-0.0066276
-0.00915827
-0.00977102
-0.0101709
-0.00966621
-0.00711003
-0.00165454
0.00660277
0.0139273
0.0125879
-0.00932504
-0.0109127
-0.0111033
-0.0109726
-0.0099265
-0.00704391
-0.00157591
0.00624001
0.0132406
0.0125847
-0.010788
-0.0114407
-0.0115228
-0.0113895
-0.0104094
-0.0076497
-0.00248336
0.00477798
0.0116102
0.0128112
-0.0205914
-0.0206593
-0.0204704
-0.020474
-0.0197346
-0.0167342
-0.00982451
0.00152105
0.0143671
0.0210306
-0.0188861
-0.0200326
-0.0200362
-0.020171
-0.0196291
-0.0169059
-0.0101777
0.00169132
0.01519
0.0213838
-0.0159178
-0.0181517
-0.0188308
-0.0199045
-0.0204267
-0.0186601
-0.0124335
-4.19946e-05
0.0145466
0.0213951
-0.0133739
-0.0164038
-0.0176748
-0.0195415
-0.0209036
-0.0198638
-0.0140044
-0.00136265
0.0138728
0.0213078
-0.0119519
-0.0153935
-0.0169916
-0.0192746
-0.0210516
-0.0203269
-0.0147028
-0.00200139
0.0134999
0.0212299
-0.0119519
-0.0153935
-0.0169916
-0.0192746
-0.0210516
-0.0203269
-0.0147028
-0.00200139
0.0134999
0.0212299
-0.0133738
-0.0164038
-0.0176748
-0.0195414
-0.0209036
-0.0198638
-0.0140044
-0.00136264
0.0138728
0.0213078
-0.0159177
-0.0181517
-0.0188308
-0.0199045
-0.0204267
-0.0186601
-0.0124335
-4.19839e-05
0.0145466
0.0213951
-0.018886
-0.0200326
-0.0200361
-0.020171
-0.0196291
-0.0169059
-0.0101777
0.00169133
0.0151901
0.0213838
-0.0205914
-0.0206593
-0.0204704
-0.020474
-0.0197346
-0.0167341
-0.00982449
0.00152105
0.0143671
0.0210306
-0.0349198
-0.0326638
-0.031207
-0.0308002
-0.0301529
-0.0270049
-0.0184451
-0.00182168
0.0201306
0.0388651
-0.0327734
-0.0318891
-0.0308609
-0.0309568
-0.0310705
-0.0290738
-0.0217746
-0.00533829
0.0177835
0.0389737
-0.0295156
-0.0298156
-0.0297631
-0.0312916
-0.0331416
-0.0329614
-0.0269923
-0.010249
0.0147052
0.0388137
-0.0268553
-0.0279666
-0.0286794
-0.0312853
-0.0343424
-0.0353189
-0.0301336
-0.013212
0.0127855
0.0386741
-0.0254088
-0.0269277
-0.0280445
-0.0311784
-0.0347862
-0.036264
-0.0314262
-0.0144629
0.011953
0.0385919
-0.0254088
-0.0269277
-0.0280445
-0.0311783
-0.0347862
-0.036264
-0.0314261
-0.0144629
0.011953
0.0385919
-0.0268553
-0.0279666
-0.0286794
-0.0312853
-0.0343424
-0.0353189
-0.0301336
-0.013212
0.0127855
0.0386741
-0.0295156
-0.0298156
-0.0297631
-0.0312915
-0.0331416
-0.0329614
-0.0269923
-0.010249
0.0147052
0.0388137
-0.0327734
-0.0318891
-0.0308609
-0.0309568
-0.0310705
-0.0290738
-0.0217745
-0.00533829
0.0177835
0.0389737
-0.0349198
-0.0326638
-0.0312069
-0.0308002
-0.0301529
-0.0270049
-0.0184451
-0.00182168
0.0201306
0.0388651
-0.0575746
-0.0470168
-0.0422345
-0.0401586
-0.0390473
-0.0355393
-0.0256733
-0.00313356
0.0302807
0.0731932
-0.0543064
-0.0455468
-0.0416306
-0.0408387
-0.0413155
-0.0400538
-0.0331323
-0.0121361
0.022511
0.0736566
-0.0501426
-0.0426191
-0.0398884
-0.041091
-0.0439559
-0.0451356
-0.0403007
-0.0192101
0.0177943
0.0751034
-0.0470491
-0.0402841
-0.0383804
-0.0408729
-0.0452273
-0.0477804
-0.0440102
-0.0226098
0.0158139
0.0764653
-0.0454625
-0.0390618
-0.0375775
-0.0406602
-0.0456405
-0.048733
-0.0454036
-0.0238514
0.0151827
0.0771249
-0.0454625
-0.0390618
-0.0375775
-0.0406602
-0.0456405
-0.048733
-0.0454036
-0.0238514
0.0151827
0.0771249
-0.0470491
-0.0402841
-0.0383804
-0.0408729
-0.0452272
-0.0477804
-0.0440102
-0.0226098
0.0158139
0.0764653
-0.0501426
-0.0426191
-0.0398884
-0.041091
-0.0439559
-0.0451356
-0.0403007
-0.0192101
0.0177943
0.0751034
-0.0543064
-0.0455467
-0.0416306
-0.0408387
-0.0413155
-0.0400538
-0.0331323
-0.0121361
0.022511
0.0736566
-0.0575746
-0.0470168
-0.0422345
-0.0401586
-0.0390472
-0.0355393
-0.0256733
-0.00313356
0.0302807
0.0731932
-0.0890798
-0.0612429
-0.0519803
-0.046361
-0.0436305
-0.0390563
-0.0263728
0.00466143
0.0516459
0.150875
-0.081408
-0.0572689
-0.0505547
-0.0473608
-0.0470073
-0.045173
-0.0362118
-0.0061229
0.0452801
0.162525
-0.0749945
-0.0524366
-0.0472844
-0.0466235
-0.0492057
-0.0500266
-0.0431328
-0.0114117
0.0463407
0.171597
-0.0709947
-0.0491342
-0.0448753
-0.0457396
-0.0500217
-0.0523077
-0.0462344
-0.0132193
0.0476534
0.177312
-0.0691469
-0.0475536
-0.0437154
-0.0452534
-0.0502387
-0.0531064
-0.0473207
-0.0137854
0.0483759
0.179796
-0.0691469
-0.0475536
-0.0437154
-0.0452534
-0.0502387
-0.0531064
-0.0473207
-0.0137854
0.0483759
0.179796
-0.0709947
-0.0491342
-0.0448753
-0.0457396
-0.0500217
-0.0523077
-0.0462344
-0.0132193
0.0476534
0.177312
-0.0749945
-0.0524366
-0.0472843
-0.0466235
-0.0492057
-0.0500266
-0.0431328
-0.0114117
0.0463407
0.171597
-0.0814079
-0.0572689
-0.0505547
-0.0473608
-0.0470073
-0.045173
-0.0362118
-0.0061229
0.0452801
0.162525
-0.0890798
-0.0612429
-0.0519803
-0.046361
-0.0436305
-0.0390563
-0.0263728
0.00466144
0.0516459
0.150875
-0.199316
-0.0738995
-0.0488896
-0.0404317
-0.0361454
-0.0293872
-0.0124711
0.0327723
0.119023
0.32466
-0.187006
-0.0611488
-0.0410615
-0.0370344
-0.0364204
-0.0329972
-0.0184767
0.0296033
0.129535
0.359304
-0.17809
-0.0521971
-0.0343816
-0.0334474
-0.0360329
-0.0349921
-0.0214541
0.0297238
0.138866
0.380181
-0.172937
-0.0471269
-0.0303354
-0.031126
-0.0355448
-0.0358169
-0.022602
0.0302149
0.143496
0.390218
-0.170673
-0.0449456
-0.0285814
-0.0300988
-0.0352891
-0.0361196
-0.023037
0.0304306
0.145262
0.394043
-0.170673
-0.0449456
-0.0285814
-0.0300988
-0.0352891
-0.0361196
-0.023037
0.0304306
0.145262
0.394043
-0.172937
-0.0471269
-0.0303354
-0.031126
-0.0355448
-0.0358169
-0.022602
0.0302149
0.143496
0.390218
-0.17809
-0.0521971
-0.0343816
-0.0334474
-0.0360329
-0.0349921
-0.0214541
0.0297238
0.138866
0.380181
-0.187006
-0.0611487
-0.0410615
-0.0370344
-0.0364204
-0.0329972
-0.0184767
0.0296034
0.129535
0.359304
-0.199316
-0.0738995
-0.0488896
-0.0404317
-0.0361454
-0.0293872
-0.0124711
0.0327723
0.119023
0.32466
)
;

boundaryField
{
    top
    {
        type            zeroGradient;
    }
    others
    {
        type            zeroGradient;
    }
}


// ************************************************************************* //
