/*--------------------------------*- C++ -*----------------------------------*\
  =========                 |
  \\      /  F ield         | OpenFOAM: The Open Source CFD Toolbox
   \\    /   O peration     | Website:  https://openfoam.org
    \\  /    A nd           | Version:  9
     \\/     M anipulation  |
\*---------------------------------------------------------------------------*/
FoamFile
{
    format      ascii;
    class       volVectorField;
    location    "0.87";
    object      U;
}
// * * * * * * * * * * * * * * * * * * * * * * * * * * * * * * * * * * * * * //

dimensions      [0 1 -1 0 0 0 0];

internalField   nonuniform List<vector> 
1000
(
(3.33991e-05 -0.000516257 0.000339928)
(-0.0013937 -0.000486239 0.00107844)
(-0.00456935 -0.000443522 0.0014418)
(-0.00797055 -0.000553617 0.00160299)
(-0.0108933 -0.000863299 0.00157349)
(-0.0123677 -0.0013329 0.00126109)
(-0.0114488 -0.00179745 0.000654372)
(-0.00788281 -0.00196459 -1.56826e-05)
(-0.00262496 -0.001563 -0.000214153)
(0.0001136 -0.00046799 0.00038336)
(-0.00014613 -0.00183666 0.000596747)
(-0.00343483 -0.00227718 0.00231652)
(-0.0101664 -0.00236313 0.00308184)
(-0.0170935 -0.00269802 0.00318439)
(-0.0227104 -0.00346315 0.00269452)
(-0.0252181 -0.00455498 0.00151557)
(-0.0229779 -0.00554808 -0.000209216)
(-0.0156967 -0.00573595 -0.00174385)
(-0.0054527 -0.00453704 -0.00176311)
(-3.24979e-06 -0.00167765 0.000240827)
(-0.000348649 -0.00275999 0.000282796)
(-0.00500777 -0.00388669 0.00236518)
(-0.0141299 -0.00421341 0.00327104)
(-0.0232726 -0.00466227 0.00322654)
(-0.0303987 -0.00552017 0.00229859)
(-0.0332083 -0.00666692 0.000418328)
(-0.029697 -0.00755663 -0.0021025)
(-0.0197163 -0.00748141 -0.00402339)
(-0.00628614 -0.00589789 -0.00347614)
(0.000357315 -0.00250633 -4.15252e-05)
(-0.000498212 -0.00234498 -0.000139339)
(-0.00609576 -0.00344614 0.00200149)
(-0.0168028 -0.00378214 0.00292612)
(-0.027352 -0.0041424 0.00274852)
(-0.035346 -0.00477123 0.00150713)
(-0.0381168 -0.00557351 -0.000837055)
(-0.033504 -0.00611047 -0.00382967)
(-0.0216413 -0.00591995 -0.00585872)
(-0.00622889 -0.00466356 -0.00473583)
(0.000837583 -0.00209893 -0.000237441)
(-0.000579929 -0.000906851 -0.000403364)
(-0.00666045 -0.00135436 0.00172084)
(-0.0181646 -0.00149273 0.00263598)
(-0.0293982 -0.0016269 0.00238288)
(-0.0377754 -0.00184976 0.00097837)
(-0.0404575 -0.00212474 -0.00159944)
(-0.035224 -0.00230095 -0.00478799)
(-0.0223864 -0.0022091 -0.00681715)
(-0.00603027 -0.00174125 -0.00535829)
(0.00114126 -0.000803415 -0.000326023)
(-0.000579926 0.000906791 -0.000403361)
(-0.00666045 0.00135431 0.00172085)
(-0.0181646 0.00149269 0.00263598)
(-0.0293982 0.00162687 0.00238288)
(-0.0377754 0.00184974 0.000978371)
(-0.0404575 0.00212473 -0.00159944)
(-0.035224 0.00230094 -0.00478799)
(-0.0223864 0.00220909 -0.00681715)
(-0.00603027 0.00174124 -0.00535829)
(0.00114126 0.00080341 -0.000326023)
(-0.000498199 0.0023449 -0.000139327)
(-0.00609574 0.00344608 0.0020015)
(-0.0168028 0.0037821 0.00292612)
(-0.027352 0.00414237 0.00274852)
(-0.035346 0.00477121 0.00150713)
(-0.0381168 0.00557349 -0.000837053)
(-0.033504 0.00611046 -0.00382967)
(-0.0216413 0.00591994 -0.00585871)
(-0.00622889 0.00466355 -0.00473583)
(0.000837584 0.00209893 -0.00023744)
(-0.000348617 0.00275986 0.000282825)
(-0.00500772 0.00388662 0.0023652)
(-0.0141298 0.00421337 0.00327105)
(-0.0232726 0.00466225 0.00322654)
(-0.0303987 0.00552015 0.00229859)
(-0.0332083 0.00666691 0.000418331)
(-0.029697 0.00755662 -0.00210249)
(-0.0197163 0.0074814 -0.00402339)
(-0.00628614 0.00589789 -0.00347614)
(0.000357316 0.00250632 -4.15249e-05)
(-0.000146047 0.00183633 0.000596825)
(-0.00343471 0.00227708 0.00231655)
(-0.0101663 0.00236308 0.00308185)
(-0.0170934 0.002698 0.0031844)
(-0.0227104 0.00346314 0.00269452)
(-0.0252181 0.00455498 0.00151557)
(-0.0229778 0.00554808 -0.000209214)
(-0.0156967 0.00573595 -0.00174385)
(-0.0054527 0.00453704 -0.0017631)
(-3.24861e-06 0.00167764 0.000240827)
(3.36622e-05 0.00051601 0.000340189)
(-0.00139336 0.000486174 0.00107851)
(-0.00456924 0.0004435 0.00144182)
(-0.0079705 0.000553607 0.001603)
(-0.0108932 0.000863294 0.00157349)
(-0.0123677 0.0013329 0.00126109)
(-0.0114488 0.00179745 0.000654373)
(-0.0078828 0.00196459 -1.56826e-05)
(-0.00262496 0.001563 -0.000214153)
(0.000113601 0.000467989 0.00038336)
(-0.000622116 -0.00147308 0.00347478)
(-0.00409478 -0.0019028 0.00698009)
(-0.0101472 -0.00194074 0.00836058)
(-0.0163964 -0.00196738 0.00856703)
(-0.0216513 -0.00214115 0.00769746)
(-0.0243275 -0.00248429 0.0055189)
(-0.0228616 -0.00283965 0.00215274)
(-0.016606 -0.00285552 -0.0013323)
(-0.00681265 -0.00209789 -0.00275594)
(-0.000653226 -0.000321567 -0.000496775)
(-0.00196002 -0.00437325 0.00581327)
(-0.0108655 -0.00617003 0.0132732)
(-0.0253217 -0.0064656 0.0159441)
(-0.0394726 -0.006559 0.0153709)
(-0.0504373 -0.00697047 0.0119172)
(-0.0550907 -0.00773026 0.00550658)
(-0.0507374 -0.00842667 -0.00290531)
(-0.0366155 -0.00817841 -0.0101789)
(-0.0157979 -0.00610516 -0.0111041)
(-0.00214726 -0.0016563 -0.00289485)
(-0.00305184 -0.00584596 0.00561821)
(-0.0161014 -0.00881128 0.0144576)
(-0.0365606 -0.00938974 0.0173742)
(-0.0558208 -0.00949163 0.015737)
(-0.0698762 -0.00987055 0.00995751)
(-0.0748492 -0.010552 0.00024234)
(-0.0676667 -0.0110152 -0.0115178)
(-0.0479014 -0.0103928 -0.0204357)
(-0.0201521 -0.00789501 -0.0192542)
(-0.00252366 -0.00286745 -0.00516705)
(-0.00378369 -0.00473905 0.00473742)
(-0.0196497 -0.00735298 0.0137764)
(-0.0440874 -0.00787942 0.0165159)
(-0.0664749 -0.00792905 0.0139614)
(-0.082102 -0.00813266 0.00650468)
(-0.0867 -0.00851349 -0.00534953)
(-0.0771826 -0.00864389 -0.0189853)
(-0.053678 -0.00803084 -0.0283378)
(-0.0218388 -0.00616997 -0.0250335)
(-0.00235879 -0.00249742 -0.00667753)
(-0.00414864 -0.00179786 0.00411228)
(-0.0214408 -0.00282112 0.0130666)
(-0.047866 -0.00302793 0.0156263)
(-0.0717301 -0.00303681 0.0125572)
(-0.0879837 -0.00308918 0.00424031)
(-0.0922012 -0.00319679 -0.00862233)
(-0.0813859 -0.00320392 -0.0230213)
(-0.0560343 -0.00295674 -0.0323704)
(-0.0223365 -0.0022866 -0.0278509)
(-0.00216728 -0.000969147 -0.00738034)
(-0.00414863 0.00179781 0.00411229)
(-0.0214408 0.00282108 0.0130666)
(-0.047866 0.0030279 0.0156263)
(-0.0717301 0.00303679 0.0125572)
(-0.0879837 0.00308916 0.00424031)
(-0.0922012 0.00319678 -0.00862233)
(-0.0813859 0.00320391 -0.0230213)
(-0.0560343 0.00295673 -0.0323704)
(-0.0223365 0.00228659 -0.0278509)
(-0.00216728 0.000969143 -0.00738034)
(-0.00378368 0.00473899 0.00473744)
(-0.0196497 0.00735293 0.0137764)
(-0.0440874 0.00787938 0.0165159)
(-0.0664749 0.00792903 0.0139614)
(-0.082102 0.00813264 0.00650468)
(-0.0867 0.00851348 -0.00534952)
(-0.0771826 0.00864388 -0.0189853)
(-0.053678 0.00803083 -0.0283378)
(-0.0218388 0.00616997 -0.0250335)
(-0.00235879 0.00249742 -0.00667753)
(-0.00305182 0.00584589 0.00561826)
(-0.0161014 0.00881122 0.0144576)
(-0.0365606 0.0093897 0.0173742)
(-0.0558208 0.00949161 0.015737)
(-0.0698762 0.00987053 0.00995752)
(-0.0748492 0.010552 0.000242345)
(-0.0676667 0.0110151 -0.0115178)
(-0.0479014 0.0103928 -0.0204357)
(-0.0201521 0.007895 -0.0192542)
(-0.00252366 0.00286745 -0.00516705)
(-0.00195998 0.00437314 0.00581339)
(-0.0108655 0.00616998 0.0132732)
(-0.0253217 0.00646557 0.0159442)
(-0.0394726 0.00655898 0.0153709)
(-0.0504373 0.00697046 0.0119172)
(-0.0550907 0.00773025 0.00550659)
(-0.0507374 0.00842667 -0.00290531)
(-0.0366155 0.0081784 -0.0101789)
(-0.0157979 0.00610516 -0.0111041)
(-0.00214726 0.00165629 -0.00289484)
(-0.000622049 0.00147302 0.00347512)
(-0.00409468 0.00190277 0.00698019)
(-0.0101471 0.00194072 0.00836062)
(-0.0163963 0.00196737 0.00856705)
(-0.0216512 0.00214114 0.00769747)
(-0.0243275 0.00248428 0.00551891)
(-0.0228616 0.00283965 0.00215274)
(-0.016606 0.00285552 -0.0013323)
(-0.00681265 0.00209789 -0.00275593)
(-0.000653225 0.000321565 -0.000496775)
(-0.00109579 -0.0022922 0.0101722)
(-0.00596871 -0.0030394 0.0182386)
(-0.0138699 -0.00301712 0.0208822)
(-0.0219977 -0.00278675 0.0206434)
(-0.0292017 -0.00264049 0.0178724)
(-0.0336843 -0.00272487 0.0121862)
(-0.0332326 -0.00296341 0.00384618)
(-0.0260877 -0.0030077 -0.00496624)
(-0.0125992 -0.00222826 -0.00940137)
(-0.00218293 -5.23758e-05 -0.00464408)
(-0.00347252 -0.00649315 0.0169884)
(-0.0167724 -0.00916034 0.0334837)
(-0.0368581 -0.00917879 0.0382765)
(-0.0561494 -0.00840336 0.0355678)
(-0.071473 -0.00775277 0.0263972)
(-0.0792196 -0.00758748 0.0108657)
(-0.0756559 -0.00773121 -0.00902009)
(-0.058263 -0.00750287 -0.0269322)
(-0.0287001 -0.00568107 -0.0313264)
(-0.0054675 -0.000952773 -0.0130998)
(-0.00543259 -0.00832798 0.0181067)
(-0.0253834 -0.0123764 0.0374695)
(-0.054451 -0.0124533 0.0422841)
(-0.0809878 -0.0112293 0.0367138)
(-0.100467 -0.009994 0.0221015)
(-0.108538 -0.00919646 -0.000683609)
(-0.101271 -0.00872313 -0.027688)
(-0.0764195 -0.00814802 -0.0495009)
(-0.0369626 -0.00640774 -0.0503165)
(-0.00676254 -0.00196886 -0.0196534)
(-0.00676453 -0.00659032 0.0174485)
(-0.0312563 -0.0100325 0.0372523)
(-0.0662322 -0.0100789 0.0413361)
(-0.0970151 -0.00895921 0.0334176)
(-0.118289 -0.00774071 0.0150583)
(-0.125529 -0.00679011 -0.0120843)
(-0.115126 -0.00611707 -0.0427457)
(-0.0854994 -0.00560262 -0.0656163)
(-0.0405482 -0.00455699 -0.0628175)
(-0.00703683 -0.00172844 -0.0236968)
(-0.00742983 -0.00247116 0.0167856)
(-0.0342074 -0.00379649 0.0364374)
(-0.0720898 -0.0038063 0.0399561)
(-0.104783 -0.00335356 0.0307572)
(-0.126616 -0.0028464 0.0105551)
(-0.133112 -0.0024271 -0.0185015)
(-0.120987 -0.00212886 -0.0505129)
(-0.089104 -0.00193604 -0.0734309)
(-0.0418046 -0.00160946 -0.068626)
(-0.0070302 -0.000669272 -0.0255065)
(-0.00742982 0.00247112 0.0167856)
(-0.0342074 0.00379646 0.0364374)
(-0.0720898 0.00380628 0.0399561)
(-0.104783 0.00335354 0.0307572)
(-0.126616 0.00284639 0.0105551)
(-0.133112 0.00242708 -0.0185015)
(-0.120987 0.00212885 -0.0505129)
(-0.089104 0.00193603 -0.0734309)
(-0.0418046 0.00160946 -0.068626)
(-0.0070302 0.000669268 -0.0255065)
(-0.00676452 0.00659027 0.0174485)
(-0.0312563 0.0100325 0.0372523)
(-0.0662322 0.0100789 0.0413361)
(-0.0970151 0.00895919 0.0334177)
(-0.118289 0.0077407 0.0150583)
(-0.125529 0.00679009 -0.0120843)
(-0.115126 0.00611706 -0.0427457)
(-0.0854994 0.00560262 -0.0656163)
(-0.0405482 0.00455698 -0.0628175)
(-0.00703683 0.00172844 -0.0236968)
(-0.00543258 0.00832794 0.0181067)
(-0.0253834 0.0123763 0.0374696)
(-0.054451 0.0124533 0.0422842)
(-0.0809878 0.0112293 0.0367138)
(-0.100467 0.00999398 0.0221015)
(-0.108538 0.00919645 -0.000683605)
(-0.101271 0.00872313 -0.027688)
(-0.0764195 0.00814802 -0.0495009)
(-0.0369626 0.00640774 -0.0503165)
(-0.00676254 0.00196886 -0.0196534)
(-0.0034725 0.00649311 0.0169885)
(-0.0167724 0.0091603 0.0334837)
(-0.036858 0.00917877 0.0382766)
(-0.0561493 0.00840335 0.0355678)
(-0.071473 0.00775276 0.0263972)
(-0.0792196 0.00758747 0.0108657)
(-0.0756559 0.00773121 -0.00902009)
(-0.058263 0.00750287 -0.0269322)
(-0.0287001 0.00568107 -0.0313264)
(-0.0054675 0.00095277 -0.0130998)
(-0.00109577 0.00229218 0.0101723)
(-0.00596867 0.00303939 0.0182387)
(-0.0138699 0.00301711 0.0208822)
(-0.0219976 0.00278675 0.0206434)
(-0.0292017 0.00264048 0.0178724)
(-0.0336843 0.00272487 0.0121862)
(-0.0332326 0.00296341 0.00384618)
(-0.0260877 0.0030077 -0.00496624)
(-0.0125992 0.00222826 -0.00940137)
(-0.00218293 5.23745e-05 -0.00464408)
(-0.00145966 -0.00300096 0.0190015)
(-0.00728508 -0.00390115 0.0323973)
(-0.0163784 -0.00361036 0.0360567)
(-0.0259597 -0.0028726 0.0349287)
(-0.0353778 -0.0021475 0.0298164)
(-0.0429158 -0.00176537 0.0199803)
(-0.0455449 -0.00185795 0.00532127)
(-0.039458 -0.00223632 -0.0112379)
(-0.0225989 -0.00197787 -0.021339)
(-0.00548764 0.000132131 -0.0136493)
(-0.00467377 -0.00830081 0.0317911)
(-0.021285 -0.0113404 0.0589413)
(-0.0454816 -0.010433 0.065429)
(-0.0688266 -0.00796292 0.0596356)
(-0.088745 -0.00535162 0.0436634)
(-0.101705 -0.00352438 0.0174326)
(-0.102672 -0.00290009 -0.0169916)
(-0.085771 -0.00346531 -0.0507241)
(-0.0487066 -0.00351414 -0.0637723)
(-0.0117822 -0.000164784 -0.033112)
(-0.00732333 -0.01039 0.0350386)
(-0.0325776 -0.0148156 0.0669108)
(-0.0680166 -0.0134622 0.0730661)
(-0.100069 -0.00970266 0.0624404)
(-0.124844 -0.00552975 0.0379209)
(-0.138223 -0.0022197 0.000616562)
(-0.135216 -0.000645069 -0.0450134)
(-0.110127 -0.0011957 -0.0860376)
(-0.0615187 -0.00230479 -0.095796)
(-0.0144686 -0.000662771 -0.045972)
(-0.00912058 -0.00808492 0.0351632)
(-0.0402342 -0.0117521 0.0679102)
(-0.0829017 -0.0105343 0.0727106)
(-0.119679 -0.00723094 0.05836)
(-0.145998 -0.00351144 0.0284153)
(-0.158009 -0.000470595 -0.0148461)
(-0.151397 0.000958941 -0.0654074)
(-0.121255 0.000411971 -0.108487)
(-0.0669468 -0.000945597 -0.114581)
(-0.0153994 -0.000564645 -0.0531005)
(-0.0100113 -0.00300509 0.0347676)
(-0.0440345 -0.00439777 0.0673951)
(-0.0901629 -0.00390863 0.0712276)
(-0.128897 -0.00260773 0.0549314)
(-0.15543 -0.001142 0.0225112)
(-0.166255 5.63573e-05 -0.0230683)
(-0.157678 0.000614054 -0.0751833)
(-0.125334 0.000372811 -0.118507)
(-0.0688686 -0.000215852 -0.122631)
(-0.0156793 -0.00021258 -0.0560727)
(-0.0100113 0.00300506 0.0347676)
(-0.0440345 0.00439774 0.0673951)
(-0.0901629 0.00390861 0.0712276)
(-0.128897 0.00260772 0.0549314)
(-0.15543 0.00114198 0.0225112)
(-0.166255 -5.63675e-05 -0.0230683)
(-0.157678 -0.000614062 -0.0751833)
(-0.125334 -0.000372818 -0.118507)
(-0.0688686 0.000215847 -0.122631)
(-0.0156793 0.000212576 -0.0560727)
(-0.00912058 0.00808489 0.0351632)
(-0.0402342 0.0117521 0.0679102)
(-0.0829017 0.0105343 0.0727106)
(-0.119679 0.00723092 0.05836)
(-0.145998 0.00351143 0.0284153)
(-0.158009 0.000470586 -0.0148461)
(-0.151397 -0.000958948 -0.0654074)
(-0.121255 -0.000411976 -0.108487)
(-0.0669468 0.000945592 -0.114581)
(-0.0153994 0.000564641 -0.0531005)
(-0.00732333 0.01039 0.0350386)
(-0.0325776 0.0148156 0.0669109)
(-0.0680166 0.0134621 0.0730661)
(-0.100069 0.00970264 0.0624404)
(-0.124844 0.00552974 0.0379209)
(-0.138223 0.0022197 0.000616567)
(-0.135216 0.000645064 -0.0450134)
(-0.110127 0.0011957 -0.0860376)
(-0.0615187 0.00230479 -0.095796)
(-0.0144686 0.000662768 -0.045972)
(-0.00467376 0.00830079 0.0317912)
(-0.021285 0.0113404 0.0589413)
(-0.0454816 0.010433 0.0654291)
(-0.0688266 0.00796291 0.0596357)
(-0.088745 0.00535161 0.0436634)
(-0.101705 0.00352437 0.0174326)
(-0.102672 0.00290008 -0.0169916)
(-0.085771 0.00346531 -0.0507241)
(-0.0487066 0.00351414 -0.0637723)
(-0.0117822 0.000164782 -0.033112)
(-0.00145966 0.00300095 0.0190016)
(-0.00728506 0.00390114 0.0323973)
(-0.0163784 0.00361035 0.0360567)
(-0.0259597 0.00287259 0.0349287)
(-0.0353778 0.0021475 0.0298164)
(-0.0429158 0.00176536 0.0199803)
(-0.0455449 0.00185794 0.00532128)
(-0.039458 0.00223632 -0.0112379)
(-0.0225989 0.00197787 -0.021339)
(-0.00548764 -0.000132132 -0.0136493)
(-0.0019855 -0.0035463 0.029739)
(-0.00851728 -0.00439905 0.0485351)
(-0.0179557 -0.00356422 0.0524793)
(-0.0282202 -0.00195534 0.0498553)
(-0.039774 -0.000224108 0.0420982)
(-0.051534 0.00108506 0.027852)
(-0.0597278 0.00140678 0.00579976)
(-0.0576749 0.000442129 -0.0213555)
(-0.0391937 -0.000744989 -0.0414686)
(-0.0120831 3.94943e-05 -0.0315762)
(-0.0058681 -0.00962359 0.0496138)
(-0.0247712 -0.0124712 0.088049)
(-0.0510698 -0.00986559 0.0953956)
(-0.0766621 -0.00467044 0.0858618)
(-0.100567 0.00109248 0.0629681)
(-0.120193 0.00571376 0.0257615)
(-0.129399 0.00754263 -0.0252734)
(-0.118053 0.005323 -0.0806143)
(-0.0779591 0.00103067 -0.111326)
(-0.0231938 0.000116713 -0.0697274)
(-0.00891445 -0.0117993 0.0555221)
(-0.0376324 -0.0158633 0.100902)
(-0.076378 -0.0120951 0.10779)
(-0.111136 -0.00453215 0.091961)
(-0.139781 0.00388883 0.0583143)
(-0.159447 0.0106134 0.00727777)
(-0.164385 0.0132849 -0.0585255)
(-0.144989 0.0102096 -0.125486)
(-0.0941973 0.0037477 -0.156358)
(-0.0275964 0.000213093 -0.091449)
(-0.0109247 -0.00904423 0.0567933)
(-0.0461489 -0.0123457 0.103721)
(-0.0925894 -0.00910827 0.108893)
(-0.131765 -0.00270019 0.0885839)
(-0.161088 0.0043438 0.048879)
(-0.17831 0.00980795 -0.0084693)
(-0.179078 0.0116574 -0.0797074)
(-0.155141 0.00883248 -0.150066)
(-0.100265 0.00345796 -0.179281)
(-0.0292781 0.00023173 -0.102136)
(-0.011898 -0.00333453 0.0568671)
(-0.0502762 -0.00457282 0.103835)
(-0.100253 -0.00330919 0.107805)
(-0.140999 -0.000835965 0.0852737)
(-0.169857 0.00185575 0.0430731)
(-0.185269 0.00390031 -0.0163525)
(-0.183898 0.00449882 -0.0889191)
(-0.158265 0.00335708 -0.159928)
(-0.102308 0.00133293 -0.188225)
(-0.0298993 0.000100543 -0.106287)
(-0.011898 0.00333451 0.0568671)
(-0.0502762 0.0045728 0.103835)
(-0.100253 0.00330917 0.107805)
(-0.140999 0.000835952 0.0852737)
(-0.169857 -0.00185576 0.0430731)
(-0.185269 -0.00390032 -0.0163525)
(-0.183898 -0.00449883 -0.0889191)
(-0.158265 -0.00335709 -0.159928)
(-0.102308 -0.00133294 -0.188225)
(-0.0298993 -0.000100547 -0.106287)
(-0.0109247 0.00904421 0.0567933)
(-0.0461489 0.0123456 0.103721)
(-0.0925894 0.00910826 0.108893)
(-0.131765 0.00270018 0.088584)
(-0.161088 -0.00434381 0.0488791)
(-0.17831 -0.00980795 -0.0084693)
(-0.179078 -0.0116574 -0.0797074)
(-0.155141 -0.00883249 -0.150066)
(-0.100265 -0.00345796 -0.179281)
(-0.0292781 -0.000231733 -0.102136)
(-0.00891445 0.0117993 0.0555221)
(-0.0376324 0.0158633 0.100903)
(-0.076378 0.012095 0.10779)
(-0.111136 0.00453214 0.091961)
(-0.139781 -0.00388883 0.0583143)
(-0.159447 -0.0106134 0.00727778)
(-0.164385 -0.0132849 -0.0585255)
(-0.144989 -0.0102096 -0.125486)
(-0.0941973 -0.0037477 -0.156358)
(-0.0275964 -0.000213096 -0.091449)
(-0.0058681 0.00962358 0.0496139)
(-0.0247712 0.0124711 0.0880491)
(-0.0510698 0.00986558 0.0953957)
(-0.0766621 0.00467043 0.0858618)
(-0.100567 -0.00109248 0.0629682)
(-0.120193 -0.00571376 0.0257615)
(-0.129399 -0.00754263 -0.0252734)
(-0.118053 -0.005323 -0.0806143)
(-0.0779591 -0.00103067 -0.111326)
(-0.0231938 -0.000116715 -0.0697274)
(-0.00198549 0.00354629 0.0297391)
(-0.00851727 0.00439904 0.0485351)
(-0.0179557 0.00356422 0.0524793)
(-0.0282202 0.00195534 0.0498553)
(-0.039774 0.000224104 0.0420982)
(-0.051534 -0.00108506 0.027852)
(-0.0597278 -0.00140678 0.00579977)
(-0.0576749 -0.00044213 -0.0213555)
(-0.0391937 0.000744991 -0.0414686)
(-0.0120831 -3.94942e-05 -0.0315762)
(-0.00330061 -0.00396133 0.0425612)
(-0.0106647 -0.00452385 0.0652959)
(-0.0189643 -0.00282003 0.0677959)
(-0.0281097 8.9857e-05 0.0626016)
(-0.0404618 0.00342657 0.0519625)
(-0.0564537 0.00637411 0.033628)
(-0.0723442 0.0077771 0.00417626)
(-0.0784247 0.00627 -0.0359588)
(-0.0626859 0.0025055 -0.0716518)
(-0.0228929 -0.000321184 -0.0639707)
(-0.00779644 -0.010482 0.070118)
(-0.028106 -0.0125313 0.118461)
(-0.0531737 -0.00746877 0.124834)
(-0.0769728 0.00139964 0.110926)
(-0.101335 0.0114629 0.0820123)
(-0.125866 0.0200859 0.0356795)
(-0.144674 0.0239148 -0.0309905)
(-0.144252 0.0194412 -0.111747)
(-0.110503 0.00820202 -0.171726)
(-0.0388766 -0.000804874 -0.130861)
(-0.0108435 -0.0125409 0.0786731)
(-0.0409558 -0.0155776 0.136515)
(-0.0781766 -0.00864741 0.142942)
(-0.110093 0.00352043 0.122445)
(-0.137538 0.0168976 0.082282)
(-0.160205 0.0275332 0.0213635)
(-0.17333 0.0310776 -0.0618361)
(-0.165085 0.0242388 -0.158315)
(-0.124363 0.0100814 -0.225153)
(-0.0436396 -0.000491313 -0.163563)
(-0.0127242 -0.00945183 0.08105)
(-0.0490791 -0.0119158 0.141359)
(-0.0933951 -0.00620808 0.146287)
(-0.128512 0.00368531 0.121551)
(-0.154981 0.0142201 0.0760043)
(-0.173581 0.0219933 0.00971458)
(-0.18169 0.0237254 -0.0785586)
(-0.16964 0.0176601 -0.179794)
(-0.128017 0.00705928 -0.248628)
(-0.0454091 -0.000196444 -0.178019)
(-0.0135951 -0.00345396 0.0815802)
(-0.0528707 -0.00437226 0.142218)
(-0.100267 -0.00219475 0.146016)
(-0.136199 0.00154001 0.119292)
(-0.16132 0.00543575 0.0718312)
(-0.177324 0.00816857 0.00422709)
(-0.18311 0.00859993 -0.0849865)
(-0.17014 0.00622546 -0.187471)
(-0.129123 0.00242947 -0.257105)
(-0.0461631 -3.8248e-05 -0.183408)
(-0.0135951 0.00345395 0.0815802)
(-0.0528707 0.00437225 0.142218)
(-0.100267 0.00219474 0.146016)
(-0.136199 -0.00154003 0.119292)
(-0.16132 -0.00543576 0.0718312)
(-0.177324 -0.00816858 0.00422709)
(-0.18311 -0.00859993 -0.0849865)
(-0.17014 -0.00622546 -0.187471)
(-0.129123 -0.00242947 -0.257105)
(-0.0461631 3.82458e-05 -0.183408)
(-0.0127242 0.00945182 0.08105)
(-0.0490791 0.0119158 0.141359)
(-0.0933951 0.00620807 0.146287)
(-0.128512 -0.00368531 0.121551)
(-0.154981 -0.0142201 0.0760043)
(-0.173581 -0.0219933 0.00971458)
(-0.18169 -0.0237254 -0.0785586)
(-0.16964 -0.0176601 -0.179794)
(-0.128017 -0.00705929 -0.248628)
(-0.0454091 0.000196442 -0.178019)
(-0.0108435 0.0125409 0.0786731)
(-0.0409558 0.0155776 0.136515)
(-0.0781766 0.0086474 0.142942)
(-0.110093 -0.00352044 0.122445)
(-0.137538 -0.0168976 0.082282)
(-0.160205 -0.0275332 0.0213635)
(-0.17333 -0.0310776 -0.0618361)
(-0.165085 -0.0242388 -0.158315)
(-0.124363 -0.0100814 -0.225153)
(-0.0436396 0.00049131 -0.163563)
(-0.00779644 0.010482 0.070118)
(-0.028106 0.0125313 0.118461)
(-0.0531737 0.00746876 0.124834)
(-0.0769728 -0.00139965 0.110926)
(-0.101335 -0.0114629 0.0820123)
(-0.125866 -0.0200859 0.0356795)
(-0.144674 -0.0239148 -0.0309905)
(-0.144252 -0.0194412 -0.111747)
(-0.110503 -0.00820202 -0.171726)
(-0.0388766 0.000804873 -0.130861)
(-0.0033006 0.00396132 0.0425612)
(-0.0106647 0.00452384 0.0652959)
(-0.0189643 0.00282003 0.0677959)
(-0.0281097 -8.98603e-05 0.0626017)
(-0.0404618 -0.00342658 0.0519625)
(-0.0564537 -0.00637411 0.033628)
(-0.0723442 -0.0077771 0.00417626)
(-0.0784247 -0.00627 -0.0359588)
(-0.0626859 -0.0025055 -0.0716518)
(-0.0228929 0.000321185 -0.0639707)
(-0.00703858 -0.00458886 0.0595111)
(-0.0161292 -0.00469886 0.0811443)
(-0.0199826 -0.0018611 0.0786905)
(-0.024035 0.00265466 0.0690079)
(-0.0333135 0.00796333 0.0552021)
(-0.0507244 0.0131323 0.0338465)
(-0.074385 0.0163451 -0.00115052)
(-0.0924713 0.0146487 -0.0544489)
(-0.087732 0.00728412 -0.110836)
(-0.036222 -0.00137947 -0.117498)
(-0.0125845 -0.0115027 0.0949628)
(-0.0341122 -0.01239 0.147148)
(-0.0518378 -0.004497 0.148361)
(-0.0658675 0.00822815 0.128842)
(-0.0819814 0.0227337 0.0957055)
(-0.103425 0.0358153 0.0450126)
(-0.127555 0.0424584 -0.0306298)
(-0.140388 0.0359659 -0.134282)
(-0.127084 0.0159017 -0.233329)
(-0.0500252 -0.0043983 -0.221255)
(-0.0152925 -0.0131529 0.105276)
(-0.0451682 -0.0149277 0.169598)
(-0.0730525 -0.00486231 0.172127)
(-0.0924078 0.0113667 0.147296)
(-0.108118 0.0289335 0.104486)
(-0.123772 0.0430317 0.0408436)
(-0.138864 0.0477295 -0.0502758)
(-0.142861 0.0372669 -0.171819)
(-0.128367 0.0144228 -0.285828)
(-0.0509303 -0.00427291 -0.263414)
(-0.0167255 -0.00965309 0.10809)
(-0.0515787 -0.0111797 0.175893)
(-0.0849702 -0.00326534 0.177806)
(-0.105757 0.00934207 0.15002)
(-0.118659 0.0224146 0.103487)
(-0.128459 0.0319156 0.0360862)
(-0.137376 0.0336208 -0.058964)
(-0.137899 0.0246018 -0.186142)
(-0.126258 0.00862615 -0.306077)
(-0.0513868 -0.00270243 -0.280468)
(-0.0173316 -0.00348209 0.108759)
(-0.054399 -0.0040582 0.177219)
(-0.089992 -0.00110726 0.178396)
(-0.110744 0.00354501 0.149288)
(-0.12158 0.00824635 0.10171)
(-0.128294 0.0114592 0.0337879)
(-0.134817 0.0117269 -0.0618228)
(-0.134965 0.00827405 -0.190807)
(-0.125635 0.00275238 -0.313195)
(-0.0519073 -0.000878525 -0.286767)
(-0.0173316 0.00348208 0.108759)
(-0.054399 0.00405818 0.177219)
(-0.089992 0.00110725 0.178396)
(-0.110744 -0.00354501 0.149288)
(-0.12158 -0.00824635 0.10171)
(-0.128294 -0.0114592 0.0337879)
(-0.134817 -0.0117269 -0.0618228)
(-0.134965 -0.00827406 -0.190807)
(-0.125635 -0.00275238 -0.313195)
(-0.0519073 0.000878524 -0.286767)
(-0.0167255 0.00965308 0.10809)
(-0.0515787 0.0111797 0.175893)
(-0.0849702 0.00326533 0.177806)
(-0.105757 -0.00934208 0.15002)
(-0.118659 -0.0224146 0.103487)
(-0.128459 -0.0319157 0.0360862)
(-0.137376 -0.0336208 -0.058964)
(-0.137899 -0.0246018 -0.186142)
(-0.126258 -0.00862615 -0.306077)
(-0.0513868 0.00270243 -0.280468)
(-0.0152925 0.0131529 0.105276)
(-0.0451682 0.0149277 0.169598)
(-0.0730525 0.0048623 0.172127)
(-0.0924078 -0.0113667 0.147296)
(-0.108118 -0.0289335 0.104486)
(-0.123772 -0.0430317 0.0408436)
(-0.138864 -0.0477295 -0.0502758)
(-0.142861 -0.0372669 -0.171819)
(-0.128367 -0.0144228 -0.285828)
(-0.0509303 0.00427291 -0.263414)
(-0.0125845 0.0115027 0.0949628)
(-0.0341122 0.01239 0.147148)
(-0.0518378 0.004497 0.148361)
(-0.0658675 -0.00822815 0.128842)
(-0.0819814 -0.0227337 0.0957055)
(-0.103425 -0.0358153 0.0450126)
(-0.127555 -0.0424584 -0.0306298)
(-0.140388 -0.0359659 -0.134282)
(-0.127084 -0.0159017 -0.233329)
(-0.0500252 0.0043983 -0.221255)
(-0.00703858 0.00458886 0.0595111)
(-0.0161292 0.00469886 0.0811444)
(-0.0199826 0.0018611 0.0786905)
(-0.024035 -0.00265466 0.0690079)
(-0.0333135 -0.00796333 0.0552021)
(-0.0507244 -0.0131323 0.0338465)
(-0.074385 -0.0163451 -0.00115052)
(-0.0924713 -0.0146487 -0.0544489)
(-0.087732 -0.00728411 -0.110836)
(-0.036222 0.00137947 -0.117498)
(-0.0164872 -0.00626922 0.0819299)
(-0.0280755 -0.00637751 0.0926957)
(-0.0176795 -0.00254703 0.0808904)
(-0.00837401 0.0034443 0.0645864)
(-0.00695611 0.0104343 0.0476588)
(-0.0186253 0.0177015 0.0254998)
(-0.045514 0.0232735 -0.0112244)
(-0.0762252 0.0218601 -0.0739284)
(-0.0964984 0.01023 -0.153237)
(-0.0418439 -0.00613339 -0.196178)
(-0.0254671 -0.0143831 0.122832)
(-0.0493298 -0.0150871 0.167541)
(-0.0444075 -0.00538373 0.158558)
(-0.0331979 0.00973927 0.131324)
(-0.0256761 0.0268725 0.0962298)
(-0.0283691 0.0432335 0.0484768)
(-0.0459663 0.0537616 -0.0238007)
(-0.0677352 0.047388 -0.137241)
(-0.0947629 0.0188522 -0.274999)
(-0.0358227 -0.0145116 -0.326973)
(-0.028251 -0.0152182 0.132838)
(-0.0587657 -0.0169005 0.192595)
(-0.0605378 -0.00555448 0.187017)
(-0.0500769 0.0119631 0.156497)
(-0.0374426 0.030859 0.114411)
(-0.0291549 0.0468342 0.0568863)
(-0.0330939 0.054156 -0.0271872)
(-0.0429481 0.0433072 -0.157037)
(-0.0743134 0.013683 -0.315447)
(-0.0274204 -0.0126546 -0.368313)
(-0.0292582 -0.0106326 0.135106)
(-0.0631108 -0.0120921 0.199437)
(-0.0683126 -0.00360675 0.194733)
(-0.0575975 0.00923829 0.163029)
(-0.0412593 0.0225096 0.118983)
(-0.0263122 0.0327096 0.0590873)
(-0.0233493 0.0358919 -0.0278495)
(-0.0291408 0.026731 -0.163114)
(-0.0658634 0.00731566 -0.329563)
(-0.025635 -0.00749649 -0.383576)
(-0.0295762 -0.00374306 0.135541)
(-0.0647275 -0.00429194 0.200826)
(-0.0711021 -0.00120056 0.196028)
(-0.059834 0.00341343 0.163845)
(-0.0415441 0.00805055 0.119469)
(-0.0237547 0.0114142 0.0594133)
(-0.0185745 0.012171 -0.0279732)
(-0.024062 0.00873056 -0.16515)
(-0.0639784 0.00223044 -0.334704)
(-0.0258312 -0.00236198 -0.389216)
(-0.0295762 0.00374305 0.135541)
(-0.0647275 0.00429193 0.200826)
(-0.0711021 0.00120056 0.196028)
(-0.059834 -0.00341344 0.163845)
(-0.0415441 -0.00805055 0.119469)
(-0.0237547 -0.0114142 0.0594133)
(-0.0185745 -0.012171 -0.0279732)
(-0.024062 -0.00873056 -0.16515)
(-0.0639784 -0.00223044 -0.334704)
(-0.0258312 0.00236198 -0.389216)
(-0.0292582 0.0106326 0.135106)
(-0.0631108 0.0120921 0.199437)
(-0.0683126 0.00360674 0.194733)
(-0.0575975 -0.0092383 0.163029)
(-0.0412593 -0.0225096 0.118983)
(-0.0263122 -0.0327096 0.0590873)
(-0.0233493 -0.0358919 -0.0278495)
(-0.0291408 -0.0267311 -0.163114)
(-0.0658634 -0.00731566 -0.329563)
(-0.025635 0.00749649 -0.383576)
(-0.028251 0.0152182 0.132838)
(-0.0587657 0.0169005 0.192595)
(-0.0605378 0.00555448 0.187017)
(-0.0500769 -0.0119631 0.156497)
(-0.0374426 -0.030859 0.114411)
(-0.0291549 -0.0468342 0.0568863)
(-0.0330939 -0.054156 -0.0271872)
(-0.0429481 -0.0433072 -0.157037)
(-0.0743134 -0.013683 -0.315447)
(-0.0274204 0.0126546 -0.368313)
(-0.0254671 0.0143831 0.122832)
(-0.0493298 0.0150871 0.167541)
(-0.0444075 0.00538373 0.158558)
(-0.0331979 -0.00973928 0.131324)
(-0.0256761 -0.0268725 0.0962298)
(-0.0283691 -0.0432335 0.0484768)
(-0.0459663 -0.0537616 -0.0238007)
(-0.0677352 -0.047388 -0.137241)
(-0.0947629 -0.0188522 -0.274999)
(-0.0358227 0.0145116 -0.326973)
(-0.0164872 0.00626922 0.08193)
(-0.0280755 0.00637751 0.0926957)
(-0.0176794 0.00254703 0.0808904)
(-0.008374 -0.0034443 0.0645865)
(-0.00695611 -0.0104343 0.0476588)
(-0.0186253 -0.0177015 0.0254999)
(-0.045514 -0.0232735 -0.0112244)
(-0.0762252 -0.0218601 -0.0739284)
(-0.0964984 -0.01023 -0.153237)
(-0.0418439 0.00613339 -0.196178)
(-0.0238321 -0.011224 0.150173)
(-0.0201939 -0.0121156 0.0981659)
(0.0283204 -0.00748457 0.0628884)
(0.0626459 -0.000892808 0.0414858)
(0.0833749 0.00652817 0.02499)
(0.0854951 0.0144081 0.00711842)
(0.0631352 0.0216099 -0.0214893)
(0.0255652 0.0207895 -0.0790229)
(-0.0421205 0.00504464 -0.174212)
(-0.00680418 -0.017948 -0.259846)
(-0.0424742 -0.0230259 0.209703)
(-0.0413827 -0.0261993 0.169935)
(0.0237035 -0.0167665 0.12834)
(0.0796542 -0.00247034 0.0960854)
(0.124339 0.0138433 0.0662951)
(0.152185 0.0303374 0.0323639)
(0.150292 0.0445375 -0.0171438)
(0.131119 0.0425232 -0.107568)
(0.0402003 0.00986542 -0.256537)
(0.043769 -0.0320964 -0.369678)
(-0.0477435 -0.0209533 0.219955)
(-0.0509167 -0.0259731 0.190535)
(0.0132854 -0.017144 0.152008)
(0.0739213 -0.00275641 0.118455)
(0.127567 0.0135824 0.0848219)
(0.169374 0.0289558 0.0450033)
(0.181682 0.0400772 -0.0114917)
(0.176868 0.0353041 -0.110608)
(0.0810821 0.00558308 -0.27533)
(0.0632477 -0.0228484 -0.395279)
(-0.0487685 -0.013427 0.220991)
(-0.0537033 -0.0172587 0.194713)
(0.00926036 -0.0112611 0.157742)
(0.0711348 -0.00153317 0.124428)
(0.12785 0.00920217 0.0901917)
(0.17487 0.0188107 0.0489385)
(0.192042 0.0248416 -0.00976038)
(0.191322 0.0207298 -0.111786)
(0.0911903 0.00321374 -0.281956)
(0.0663231 -0.0120078 -0.403956)
(-0.0488193 -0.00453411 0.220797)
(-0.0541441 -0.00590801 0.195052)
(0.00855445 -0.00380017 0.158402)
(0.0710072 -0.000431791 0.125216)
(0.128784 0.00320341 0.0910526)
(0.177378 0.00635673 0.0497123)
(0.195655 0.00817871 -0.00953368)
(0.195153 0.00666386 -0.112684)
(0.0923563 0.00107344 -0.284717)
(0.0659592 -0.00357577 -0.407119)
(-0.0488193 0.0045341 0.220797)
(-0.0541441 0.00590801 0.195052)
(0.00855445 0.00380016 0.158402)
(0.0710072 0.000431786 0.125216)
(0.128784 -0.00320342 0.0910526)
(0.177378 -0.00635674 0.0497123)