/*--------------------------------*- C++ -*----------------------------------*\
  =========                 |
  \\      /  F ield         | OpenFOAM: The Open Source CFD Toolbox
   \\    /   O peration     | Website:  https://openfoam.org
    \\  /    A nd           | Version:  9
     \\/     M anipulation  |
\*---------------------------------------------------------------------------*/
FoamFile
{
    format      ascii;
    class       volScalarField;
    location    "0.47";
    object      p;
}
// * * * * * * * * * * * * * * * * * * * * * * * * * * * * * * * * * * * * * //

dimensions      [0 2 -2 0 0 0 0];

internalField   nonuniform List<scalar> 
1000
(
-1.39137e-06
-0.000440779
-3.79944e-05
0.00112836
0.0030941
0.00571562
0.0085475
0.0108619
0.0119702
0.0111647
0.000170332
-0.000643993
-0.000336983
0.000870485
0.0029998
0.00589291
0.00903996
0.0115623
0.012622
0.0112945
0.000844837
-0.000212408
6.0738e-05
0.00135556
0.00370262
0.00692624
0.0104261
0.0131017
0.0139575
0.0119474
0.00155289
0.00034127
0.000601699
0.00198002
0.00451994
0.008038
0.0117873
0.0145379
0.0151851
0.0126453
0.00199035
0.00070859
0.000967139
0.00239331
0.00503748
0.00870606
0.012591
0.0153683
0.0158925
0.0130771
0.00199025
0.000708515
0.000967069
0.00239326
0.00503743
0.00870601
0.012591
0.0153683
0.0158925
0.013077
0.00155258
0.000341024
0.00060149
0.00197985
0.00451978
0.00803786
0.0117871
0.0145378
0.015185
0.0126452
0.000844188
-0.000212893
6.03611e-05
0.00135528
0.00370238
0.00692603
0.0104259
0.0131016
0.0139573
0.0119472
0.00016906
-0.000644799
-0.000337529
0.000870122
0.00299953
0.0058927
0.00903977
0.0115622
0.0126218
0.0112943
-4.1691e-06
-0.00044201
-3.87073e-05
0.00112791
0.00309378
0.00571536
0.00854728
0.0108617
0.01197
0.0111645
0.000342759
-6.66404e-05
0.000357091
0.00141668
0.0031682
0.00553466
0.00815468
0.0103935
0.0115228
0.010459
0.000862462
1.69303e-05
0.000367134
0.00141432
0.00319179
0.00563801
0.00839087
0.010743
0.0118328
0.0101277
0.0019294
0.000730282
0.00102711
0.00207859
0.00392217
0.00650037
0.00947425
0.0119069
0.0128154
0.0104032
0.00290301
0.0014515
0.00170342
0.00276203
0.00467659
0.00740896
0.0105405
0.0130124
0.0137434
0.0108216
0.00346954
0.00188968
0.00211715
0.00318001
0.00513487
0.00795747
0.0111715
0.013655
0.0142831
0.011112
0.00346946
0.00188962
0.00211708
0.00317996
0.00513482
0.00795743
0.0111714
0.013655
0.0142831
0.011112
0.00290275
0.00145129
0.00170323
0.00276187
0.00467645
0.00740884
0.0105404
0.0130123
0.0137433
0.0108214
0.00192889
0.000729899
0.0010268
0.00207835
0.00392195
0.00650019
0.00947407
0.0119067
0.0128152
0.010403
0.000861627
1.63165e-05
0.000366684
0.001414
0.00319154
0.00563781
0.00839067
0.0107428
0.0118326
0.0101275
0.000341506
-6.74765e-05
0.000356535
0.0014163
0.00316792
0.00553443
0.00815446
0.0103933
0.0115226
0.0104589
-0.000955644
-0.00149764
-0.00115817
-0.000244184
0.00138435
0.00380459
0.00678937
0.00968381
0.0114384
0.0101897
-0.000131418
-0.00126436
-0.00100338
-0.00010149
0.0015523
0.00407386
0.00723648
0.0102925
0.0119811
0.00962254
0.00140694
-0.000235948
-7.20355e-05
0.000766248
0.00241437
0.0050476
0.00840462
0.0115808
0.0130809
0.00971727
0.00275232
0.000745668
0.000820169
0.00159833
0.00324533
0.00597119
0.00946938
0.0126988
0.0140128
0.0099798
0.00351584
0.00132384
0.00134701
0.00209028
0.0037379
0.00651428
0.010078
0.0133188
0.0145251
0.0101827
0.00351577
0.00132378
0.00134696
0.00209024
0.00373785
0.00651423
0.0100779
0.0133188
0.0145251
0.0101827
0.00275212
0.000745498
0.000820006
0.00159819
0.00324519
0.00597105
0.00946925
0.0126987
0.0140126
0.00997965
0.00140658
-0.000236239
-7.22971e-05
0.00076603
0.00241417
0.0050474
0.00840444
0.0115807
0.0130807
0.00971707
-0.000131939
-0.00126479
-0.00100374
-0.000101775
0.00155206
0.00407364
0.00723626
0.0102923
0.0119809
0.00962233
-0.000956316
-0.00149818
-0.00115858
-0.000244501
0.0013841
0.00380435
0.00678915
0.0096836
0.0114382
0.0101895
-0.0042659
-0.00493067
-0.00471654
-0.00401495
-0.00253706
7.80447e-05
0.00388629
0.0082921
0.0116758
0.0108007
-0.00312168
-0.0045326
-0.00440279
-0.00370018
-0.00217022
0.000599514
0.00468336
0.00941475
0.0127373
0.0101821
-0.00107574
-0.0031611
-0.00321259
-0.00269984
-0.00131853
0.00146871
0.00570971
0.0106808
0.0139193
0.0101975
0.000681171
-0.00188536
-0.00210711
-0.00177798
-0.000542725
0.00219879
0.00654923
0.01164
0.0147678
0.0103493
0.00166572
-0.00114542
-0.00146549
-0.00124281
-8.92788e-05
0.0026275
0.00700964
0.0121323
0.0151897
0.0104742
0.00166566
-0.00114547
-0.00146554
-0.00124285
-8.93158e-05
0.00262747
0.0070096
0.0121322
0.0151897
0.0104742
0.000681008
-0.0018855
-0.00210725
-0.0017781
-0.00054284
0.00219868
0.00654913
0.0116399
0.0147677
0.0103492
-0.00107602
-0.00316134
-0.00321281
-0.00270003
-0.0013187
0.00146856
0.00570957
0.0106807
0.0139192
0.0101974
-0.00312203
-0.00453293
-0.00440309
-0.00370044
-0.00217043
0.000599317
0.00468319
0.00941458
0.0127372
0.010182
-0.00426634
-0.00493109
-0.00471689
-0.00401524
-0.0025373
7.78285e-05
0.00388611
0.00829192
0.0116756
0.0108005
-0.0102807
-0.0109114
-0.0107667
-0.0103235
-0.0090929
-0.00625658
-0.00116007
0.00593335
0.0126211
0.0137842
-0.00883074
-0.0103568
-0.0103229
-0.00990294
-0.0086431
-0.00568003
-0.000277646
0.00737029
0.0141953
0.0135317
-0.0063357
-0.00870397
-0.00901056
-0.00903152
-0.00824309
-0.00558612
-0.000194089
0.00786956
0.0149865
0.0135892
-0.00422786
-0.00719259
-0.00780853
-0.00823093
-0.00785203
-0.00546245
-0.000144728
0.00812968
0.0154029
0.0136862
-0.0030603
-0.00632601
-0.00711679
-0.00776306
-0.00760345
-0.00534992
-0.000101668
0.00823552
0.0155611
0.0137389
-0.00306035
-0.00632606
-0.00711683
-0.00776309
-0.00760348
-0.00534995
-0.00010169
0.0082355
0.0155611
0.0137389
-0.004228
-0.00719272
-0.00780866
-0.00823103
-0.00785211
-0.00546251
-0.000144789
0.00812961
0.0154029
0.0136861
-0.00633593
-0.00870418
-0.00901075
-0.00903167
-0.00824322
-0.00558622
-0.000194172
0.00786947
0.0149864
0.0135891
-0.00883103
-0.0103571
-0.0103232
-0.00990315
-0.00864327
-0.00568016
-0.000277754
0.0073702
0.0141952
0.0135316
-0.0102811
-0.0109118
-0.010767
-0.0103237
-0.00909308
-0.00625672
-0.00116019
0.00593324
0.012621
0.0137841
-0.0197113
-0.0197962
-0.0193975
-0.019112
-0.0181756
-0.015154
-0.00837988
0.00275358
0.0153874
0.0219622
-0.0179597
-0.0191292
-0.0189382
-0.0188101
-0.0180844
-0.015327
-0.00869132
0.00298239
0.0162597
0.0223286
-0.015106
-0.0172917
-0.0176965
-0.0184221
-0.0187011
-0.0168744
-0.0107369
0.00144259
0.0157626
0.022403
-0.0127497
-0.0156345
-0.0165429
-0.0179744
-0.0190529
-0.0179269
-0.0121597
0.000271782
0.0152079
0.0223714
-0.0114644
-0.0146958
-0.0158786
-0.0176819
-0.0191616
-0.0183894
-0.0128046
-0.000294398
0.0148965
0.0223232
-0.0114645
-0.0146958
-0.0158786
-0.0176819
-0.0191616
-0.0183894
-0.0128046
-0.000294401
0.0148965
0.0223232
-0.0127498
-0.0156346
-0.016543
-0.0179745
-0.0190529
-0.017927
-0.0121597
0.000271778
0.0152079
0.0223714
-0.0151062
-0.0172919
-0.0176966
-0.0184222
-0.0187012
-0.0168745
-0.0107369
0.00144257
0.0157626
0.022403
-0.0179599
-0.0191294
-0.0189384
-0.0188102
-0.0180845
-0.0153271
-0.00869136
0.00298237
0.0162597
0.0223286
-0.0197116
-0.0197965
-0.0193977
-0.0191122
-0.0181758
-0.0151541
-0.00837994
0.00275355
0.0153873
0.0219622
-0.0337547
-0.0316041
-0.0299963
-0.0293646
-0.0285808
-0.0254654
-0.0170393
-0.000680082
0.0210274
0.0396279
-0.0315094
-0.0307774
-0.0296367
-0.0295259
-0.0295
-0.0275123
-0.0203233
-0.00409248
0.0187925
0.0397699
-0.0282708
-0.028706
-0.0284917
-0.0297546
-0.0314376
-0.0312734
-0.0254246
-0.00888437
0.0158246
0.0396358
-0.0257107
-0.0269036
-0.0273921
-0.0296823
-0.0325756
-0.0335965
-0.0285388
-0.011798
0.0139676
0.0395111
-0.0243498
-0.0259066
-0.0267607
-0.0295578
-0.0330155
-0.0345633
-0.0298514
-0.0130428
0.0131575
0.0394326
-0.0243499
-0.0259067
-0.0267607
-0.0295579
-0.0330155
-0.0345633
-0.0298514
-0.0130428
0.0131575
0.0394326
-0.0257108
-0.0269037
-0.0273922
-0.0296824
-0.0325756
-0.0335966
-0.0285388
-0.011798
0.0139676
0.0395111
-0.028271
-0.0287062
-0.0284918
-0.0297547
-0.0314377
-0.0312734
-0.0254246
-0.00888433
0.0158247
0.0396358
-0.0315096
-0.0307776
-0.0296368
-0.029526
-0.0295001
-0.0275123
-0.0203233
-0.00409243
0.0187925
0.0397699
-0.033755
-0.0316043
-0.0299965
-0.0293647
-0.0285809
-0.0254655
-0.0170393
-0.000680035
0.0210275
0.0396279
-0.0563625
-0.0460082
-0.0411162
-0.0388586
-0.0376279
-0.0341938
-0.0245349
-0.00226312
0.0308911
0.0736342
-0.0529643
-0.0445346
-0.0405485
-0.0395695
-0.0399043
-0.0386917
-0.0319414
-0.0112122
0.0231831
0.0740542
-0.048775
-0.0416277
-0.0388251
-0.0397964
-0.0425132
-0.0437897
-0.0391539
-0.0183561
0.0184237
0.0754014
-0.0457324
-0.0393309
-0.0373302
-0.039572
-0.0438191
-0.0465435
-0.0429826
-0.0218708
0.0163792
0.0766767
-0.0441976
-0.0381359
-0.0365339
-0.0393662
-0.0442808
-0.0475998
-0.0444725
-0.0231929
0.015704
0.0772863
-0.0441977
-0.0381359
-0.0365339
-0.0393663
-0.0442808
-0.0475998
-0.0444724
-0.0231929
0.015704
0.0772863
-0.0457325
-0.039331
-0.0373303
-0.0395721
-0.0438192
-0.0465435
-0.0429826
-0.0218708
0.0163793
0.0766767
-0.0487751
-0.0416279
-0.0388253
-0.0397965
-0.0425133
-0.0437897
-0.0391539
-0.018356
0.0184238
0.0754015
-0.0529645
-0.0445348
-0.0405486
-0.0395696
-0.0399044
-0.0386917
-0.0319413
-0.0112121
0.0231831
0.0740543
-0.0563627
-0.0460084
-0.0411164
-0.0388588
-0.037628
-0.0341938
-0.0245349
-0.00226307
0.0308912
0.0736343
-0.0881196
-0.0605094
-0.0511699
-0.0453246
-0.0424434
-0.0379192
-0.0255276
0.00518689
0.0518407
0.150907
-0.0804061
-0.056698
-0.0498176
-0.0463781
-0.0458222
-0.0440331
-0.0354013
-0.00566351
0.0453583
0.162427
-0.0740316
-0.0519897
-0.0466712
-0.0457067
-0.048068
-0.048983
-0.0424888
-0.0111594
0.0461924
0.171318
-0.070094
-0.048768
-0.0443182
-0.044865
-0.0489715
-0.0514229
-0.0457909
-0.0131534
0.0473734
0.176903
-0.0682892
-0.047221
-0.0431696
-0.0443936
-0.0492515
-0.0523374
-0.0470074
-0.0138277
0.0480206
0.179316
-0.0682893
-0.047221
-0.0431697
-0.0443936
-0.0492515
-0.0523374
-0.0470073
-0.0138276
0.0480207
0.179316
-0.0700941
-0.0487681
-0.0443183
-0.044865
-0.0489715
-0.0514229
-0.0457909
-0.0131533
0.0473734
0.176903
-0.0740318
-0.0519898
-0.0466713
-0.0457068
-0.0480681
-0.048983
-0.0424888
-0.0111593
0.0461925
0.171318
-0.0804063
-0.0566982
-0.0498178
-0.0463783
-0.0458223
-0.0440331
-0.0354013
-0.00566347
0.0453583
0.162427
-0.0881199
-0.0605095
-0.0511701
-0.0453247
-0.0424435
-0.0379193
-0.0255276
0.00518692
0.0518407
0.150907
-0.198573
-0.0733977
-0.0482976
-0.03961
-0.0351437
-0.0283983
-0.0116653
0.0332337
0.119133
0.324597
-0.186361
-0.0608737
-0.0406662
-0.0363146
-0.0354328
-0.0319814
-0.0177104
0.0299421
0.129481
0.359068
-0.177587
-0.0521509
-0.0341841
-0.0328495
-0.0351324
-0.0341027
-0.0208643
0.0298422
0.138627
0.379777
-0.172543
-0.047212
-0.0302234
-0.0305831
-0.0347241
-0.0350654
-0.0221984
0.0301518
0.143107
0.389695
-0.17033
-0.0450735
-0.0284799
-0.0295621
-0.0345103
-0.03546
-0.022749
0.0302624
0.144788
0.393456
-0.170331
-0.0450735
-0.0284799
-0.0295621
-0.0345103
-0.03546
-0.022749
0.0302625
0.144788
0.393456
-0.172543
-0.0472121
-0.0302235
-0.0305831
-0.0347242
-0.0350654
-0.0221984
0.0301518
0.143107
0.389695
-0.177587
-0.0521511
-0.0341843
-0.0328496
-0.0351325
-0.0341027
-0.0208643
0.0298422
0.138627
0.379777
-0.186361
-0.0608739
-0.0406664
-0.0363147
-0.035433
-0.0319815
-0.0177105
0.0299421
0.129481
0.359068
-0.198573
-0.0733979
-0.0482977
-0.0396102
-0.0351439
-0.0283983
-0.0116653
0.0332338
0.119133
0.324597
)
;

boundaryField
{
    top
    {
        type            zeroGradient;
    }
    others
    {
        type            zeroGradient;
    }
}


// ************************************************************************* //
