/*--------------------------------*- C++ -*----------------------------------*\
  =========                 |
  \\      /  F ield         | OpenFOAM: The Open Source CFD Toolbox
   \\    /   O peration     | Website:  https://openfoam.org
    \\  /    A nd           | Version:  9
     \\/     M anipulation  |
\*---------------------------------------------------------------------------*/
FoamFile
{
    format      ascii;
    class       surfaceScalarField;
    location    "0.47";
    object      phi;
}
// * * * * * * * * * * * * * * * * * * * * * * * * * * * * * * * * * * * * * //

dimensions      [0 3 -1 0 0 0 0];

internalField   nonuniform List<scalar> 
2700
(
-6.76077e-08
-9.16923e-08
1.59339e-07
-3.16601e-07
-9.62476e-08
3.45241e-07
-6.35875e-07
-9.49538e-08
4.14228e-07
-9.42711e-07
-1.14304e-07
4.21139e-07
-1.15582e-06
-1.62261e-07
3.75373e-07
-1.18518e-06
-2.3416e-07
2.63522e-07
-9.67482e-07
-3.06241e-07
8.85373e-08
-5.39389e-07
-3.33036e-07
-9.5057e-08
-1.08208e-07
-2.69185e-07
-1.61996e-07
-8.78346e-08
-2.03738e-08
-1.67431e-07
-1.94137e-07
2.69876e-07
-6.87272e-07
-2.49531e-07
6.73123e-07
-1.33111e-06
-2.6475e-07
8.13634e-07
-1.92652e-06
-3.01443e-07
7.8255e-07
-2.31741e-06
-3.77056e-07
6.05685e-07
-2.34253e-06
-4.82008e-07
2.72968e-07
-1.89543e-06
-5.76066e-07
-1.77276e-07
-1.06187e-06
-5.9208e-07
-5.7452e-07
-2.38953e-07
-4.74048e-07
-6.1805e-07
-1.91246e-07
-1.35542e-07
-2.35536e-07
-2.07639e-07
2.49038e-07
-9.25814e-07
-2.8907e-07
7.29818e-07
-1.76629e-06
-3.14312e-07
8.90041e-07
-2.52909e-06
-3.5147e-07
8.12827e-07
-3.01153e-06
-4.20431e-07
5.25809e-07
-3.0104e-06
-5.12761e-07
2.96242e-08
-2.39439e-06
-5.84713e-07
-6.0736e-07
-1.29682e-06
-5.84035e-07
-1.10562e-06
-2.5869e-07
-4.66691e-07
-1.04549e-06
-2.05685e-07
-2.44251e-07
-2.76372e-07
-1.29928e-07
1.9866e-07
-1.07069e-06
-1.8718e-07
6.92425e-07
-2.03075e-06
-2.05486e-07
8.51238e-07
-2.89314e-06
-2.27909e-07
7.38825e-07
-3.42547e-06
-2.67003e-07
3.78907e-07
-3.38903e-06
-3.17255e-07
-2.31951e-07
-2.65406e-06
-3.54804e-07
-9.64873e-07
-1.38825e-06
-3.49462e-07
-1.50039e-06
-2.36827e-07
-2.79385e-07
-1.33873e-06
-1.28461e-07
-3.14051e-07
-2.95603e-07
1.95009e-12
1.65673e-07
-1.13919e-06
1.43724e-12
6.56404e-07
-2.15596e-06
1.14816e-12
8.1128e-07
-3.06478e-06
8.66254e-13
6.80917e-07
-3.6177e-06
7.08546e-13
2.85914e-07
-3.56115e-06
5.27771e-13
-3.73805e-07
-2.76363e-06
3.98316e-13
-1.15232e-06
-1.4162e-06
3.19462e-13
-1.6969e-06
-2.17211e-07
2.6915e-13
-1.47837e-06
2.32487e-13
-3.45672e-07
-2.95603e-07
1.29932e-07
1.65673e-07
-1.13919e-06
1.87183e-07
6.56404e-07
-2.15596e-06
2.05488e-07
8.1128e-07
-3.06478e-06
2.27911e-07
6.80917e-07
-3.6177e-06
2.67004e-07
2.85914e-07
-3.56115e-06
3.17256e-07
-3.73805e-07
-2.76363e-06
3.54805e-07
-1.15232e-06
-1.4162e-06
3.49463e-07
-1.6969e-06
-2.17211e-07
2.79385e-07
-1.47837e-06
1.28461e-07
-3.45672e-07
-2.76372e-07
2.07644e-07
1.9866e-07
-1.07069e-06
2.89073e-07
6.92425e-07
-2.03075e-06
3.14314e-07
8.51239e-07
-2.89314e-06
3.51472e-07
7.38825e-07
-3.42547e-06
4.20432e-07
3.78906e-07
-3.38903e-06
5.12762e-07
-2.31951e-07
-2.65406e-06
5.84714e-07
-9.64873e-07
-1.38825e-06
5.84035e-07
-1.50039e-06
-2.36827e-07
4.66691e-07
-1.33873e-06
2.05685e-07
-3.1405e-07
-2.35537e-07
1.94143e-07
2.49038e-07
-9.25815e-07
2.49534e-07
7.29818e-07
-1.76629e-06
2.64752e-07
8.90041e-07
-2.52909e-06
3.01445e-07
8.12827e-07
-3.01153e-06
3.77057e-07
5.25809e-07
-3.0104e-06
4.82009e-07
2.9624e-08
-2.39439e-06
5.76066e-07
-6.0736e-07
-1.29682e-06
5.92081e-07
-1.10562e-06
-2.5869e-07
4.74048e-07
-1.04549e-06
1.91246e-07
-2.44251e-07
-1.67434e-07
9.17042e-08
2.69873e-07
-6.87275e-07
9.62518e-08
6.73122e-07
-1.33111e-06
9.49558e-08
8.13634e-07
-1.92652e-06
1.14305e-07
7.8255e-07
-2.31741e-06
1.62262e-07
6.05684e-07
-2.34253e-06
2.34161e-07
2.72968e-07
-1.89543e-06
3.06241e-07
-1.77276e-07
-1.06187e-06
3.33036e-07
-5.7452e-07
-2.38953e-07
2.69185e-07
-6.1805e-07
8.78348e-08
-1.35542e-07
-6.76218e-08
1.59326e-07
-3.16608e-07
3.45238e-07
-6.35879e-07
4.14227e-07
-9.42713e-07
4.21138e-07
-1.15582e-06
3.75372e-07
-1.18519e-06
2.63522e-07
-9.67482e-07
8.85372e-08
-5.39389e-07
-9.50571e-08
-1.08208e-07
-1.61996e-07
-2.03736e-08
-2.24165e-07
-2.4268e-07
6.26184e-07
-7.25874e-07
-3.11357e-07
1.15831e-06
-1.31792e-06
-3.23397e-07
1.32967e-06
-1.87082e-06
-3.36121e-07
1.31017e-06
-2.25138e-06
-3.7129e-07
1.12722e-06
-2.31194e-06
-4.29034e-07
7.53115e-07
-1.94304e-06
-4.8457e-07
2.04213e-07
-1.17715e-06
-4.8242e-07
-3.78531e-07
-3.32597e-07
-3.59184e-07
-6.47366e-07
-7.35356e-08
-2.79435e-07
-5.88315e-07
-4.28104e-07
1.04362e-06
-1.76419e-06
-6.0699e-07
2.14463e-06
-3.09983e-06
-6.45764e-07
2.47164e-06
-4.28595e-06
-6.71533e-07
2.30408e-06
-5.03752e-06
-7.27887e-07
1.71386e-06
-5.07781e-06
-8.11476e-07
6.95694e-07
-4.22311e-06
-8.83305e-07
-6.33236e-07
-2.58352e-06
-8.54923e-07
-1.84161e-06
-8.07304e-07
-6.48141e-07
-2.10531e-06
-2.07926e-07
-8.08455e-07
-8.40847e-07
-4.24879e-07
1.08666e-06
-2.47145e-06
-6.34391e-07
2.38782e-06
-4.28262e-06
-6.8394e-07
2.73939e-06
-5.84346e-06
-7.10627e-07
2.41276e-06
-6.77466e-06
-7.614e-07
1.49052e-06
-6.7453e-06
-8.33106e-07
2.18966e-08
-5.52725e-06
-8.78651e-07
-1.83006e-06
-3.32484e-06
-8.3456e-07
-3.32839e-06
-1.01372e-06
-6.40077e-07
-3.36467e-06
-2.43862e-07
-1.22204e-06
-9.91972e-07
-2.56961e-07
1.02271e-06
-2.90271e-06
-3.9361e-07
2.36238e-06
-5.00011e-06
-4.27089e-07
2.69179e-06
-6.77405e-06
-4.43032e-07
2.24517e-06
-7.79124e-06
-4.70739e-07
1.10543e-06
-7.67969e-06
-5.08112e-07
-6.6849e-07
-6.21637e-06
-5.26693e-07
-2.78015e-06
-3.67204e-06
-4.94982e-07
-4.38429e-06
-1.07616e-06
-3.82571e-07
-4.19212e-06
-1.57432e-07
-1.47664e-06
-1.06122e-06
1.53804e-12
9.69932e-07
-3.10422e-06
7.98222e-13
2.3058e-06
-5.3355e-06
5.39259e-13
2.61547e-06
-7.20532e-06
4.2156e-13
2.10771e-06
-8.25531e-06
4.21755e-13
8.65164e-07
-8.09347e-06
3.74849e-13
-1.04377e-06
-6.50692e-06
3.39991e-13
-3.26556e-06
-3.80322e-06
3.18164e-13
-4.89558e-06
-1.08741e-06
3.26659e-13
-4.57675e-06
3.43791e-13
-1.59052e-06
-1.06122e-06
2.56964e-07
9.69932e-07
-3.10422e-06
3.93612e-07
2.3058e-06
-5.3355e-06
4.2709e-07
2.61547e-06
-7.20532e-06
4.43032e-07
2.10771e-06
-8.25531e-06
4.7074e-07
8.65164e-07
-8.09347e-06
5.08113e-07
-1.04377e-06
-6.50692e-06
5.26693e-07
-3.26556e-06
-3.80322e-06
4.94982e-07
-4.89558e-06
-1.08741e-06
3.82572e-07
-4.57675e-06
1.57433e-07
-1.59052e-06
-9.91972e-07
4.24882e-07
1.02271e-06
-2.90271e-06
6.34392e-07
2.36238e-06
-5.00011e-06
6.83941e-07
2.69179e-06
-6.77405e-06
7.10628e-07
2.24517e-06
-7.79124e-06
7.61401e-07
1.10543e-06
-7.67969e-06
8.33107e-07
-6.6849e-07
-6.21637e-06
8.78652e-07
-2.78015e-06
-3.67204e-06
8.3456e-07
-4.38429e-06
-1.07616e-06
6.40078e-07
-4.19212e-06
2.43863e-07
-1.47664e-06
-8.40847e-07
4.28108e-07
1.08666e-06
-2.47145e-06
6.06992e-07
2.38782e-06
-4.28262e-06
6.45765e-07
2.73939e-06
-5.84346e-06
6.71533e-07
2.41276e-06
-6.77466e-06
7.27888e-07
1.49052e-06
-6.7453e-06
8.11476e-07
2.18968e-08
-5.52725e-06
8.83305e-07
-1.83006e-06
-3.32484e-06
8.54923e-07
-3.32839e-06
-1.01372e-06
6.48141e-07
-3.36467e-06
2.07926e-07
-1.22204e-06
-5.88315e-07
2.42684e-07
1.04361e-06
-1.76419e-06
3.11358e-07
2.14463e-06
-3.09983e-06
3.23398e-07
2.47164e-06
-4.28595e-06
3.36122e-07
2.30408e-06
-5.03752e-06
3.7129e-07
1.71386e-06
-5.07781e-06
4.29035e-07
6.95695e-07
-4.22311e-06
4.8457e-07
-6.33236e-07
-2.58352e-06
4.82421e-07
-1.84161e-06
-8.07304e-07
3.59184e-07
-2.10531e-06
7.35357e-08
-8.08455e-07
-2.24168e-07
6.26177e-07
-7.25878e-07
1.15831e-06
-1.31792e-06
1.32967e-06
-1.87083e-06
1.31017e-06
-2.25138e-06
1.12722e-06
-2.31194e-06
7.53115e-07
-1.94304e-06
2.04212e-07
-1.17715e-06
-3.78531e-07
-3.32597e-07
-6.47365e-07
-2.79435e-07
-3.36165e-07
-3.75701e-07
1.33805e-06
-1.01012e-06
-4.90278e-07
2.32254e-06
-1.78217e-06
-4.9742e-07
2.59914e-06
-2.51883e-06
-4.77837e-07
2.52466e-06
-3.07867e-06
-4.69104e-07
2.15617e-06
-3.27396e-06
-4.86022e-07
1.43442e-06
-2.91198e-06
-5.14764e-07
3.56997e-07
-1.92989e-06
-5.09703e-07
-8.50918e-07
-6.59916e-07
-3.81244e-07
-1.5361e-06
-3.7354e-08
-9.01997e-07
-9.27422e-07
-6.32431e-07
2.22777e-06
-2.606e-06
-8.97691e-07
4.23062e-06
-4.45108e-06
-9.21098e-07
4.74041e-06
-6.09862e-06
-8.79849e-07
4.35363e-06
-7.22001e-06
-8.45952e-07
3.21209e-06
-7.45733e-06
-8.40563e-07
1.28756e-06
-6.49069e-06
-8.42939e-07
-1.27169e-06
-4.28414e-06
-8.00495e-07
-3.75737e-06
-1.54361e-06
-6.11604e-07
-4.61548e-06
-1.504e-07
-2.23902e-06
-1.35451e-06
-6.09275e-07
2.41802e-06
-3.74019e-06
-9.04371e-07
4.78017e-06
-6.29314e-06
-9.34171e-07
5.30541e-06
-8.48169e-06
-8.86921e-07
4.60838e-06
-9.86239e-06
-8.36718e-07
2.86199e-06
-1.00015e-05
-8.01094e-07
1.21487e-07
-8.55317e-06
-7.67234e-07
-3.35405e-06
-5.55281e-06
-7.077e-07
-6.42155e-06
-1.96635e-06
-5.52592e-07
-7.01014e-06
-1.85998e-07
-3.15279e-06
-1.61574e-06
-3.62015e-07
2.39119e-06
-4.44026e-06
-5.4978e-07
4.83231e-06
-7.41591e-06
-5.69596e-07
5.30287e-06
-9.89949e-06
-5.37971e-07
4.37979e-06
-1.13817e-05
-5.00367e-07
2.25133e-06
-1.13995e-05
-4.66858e-07
-9.84947e-07
-9.62073e-06
-4.3313e-07
-4.89304e-06
-6.15449e-06
-3.92751e-07
-8.16548e-06
-2.12972e-06
-3.12202e-07
-8.45728e-06
-1.20868e-07
-3.67148e-06
-1.73614e-06
1.26019e-12
2.34406e-06
-4.76697e-06
5.58515e-13
4.78684e-06
-7.93718e-06
2.61508e-13
5.21609e-06
-1.05478e-05
2.086e-13
4.18037e-06
-1.20596e-05
2.68603e-13
1.87658e-06
-1.2001e-05
2.65941e-13
-1.56926e-06
-1.00586e-05
2.60086e-13
-5.64106e-06
-6.38396e-06
2.62552e-13
-8.96298e-06
-2.18039e-06
2.79285e-13
-9.09252e-06
3.17424e-13
-3.89177e-06
-1.73614e-06
3.62017e-07
2.34406e-06
-4.76697e-06
5.49781e-07
4.78684e-06
-7.93718e-06
5.69597e-07
5.21609e-06
-1.05478e-05
5.37972e-07
4.18037e-06
-1.20596e-05
5.00368e-07
1.87658e-06
-1.2001e-05
4.66859e-07
-1.56926e-06
-1.00586e-05
4.33131e-07
-5.64106e-06
-6.38396e-06
3.92752e-07
-8.96298e-06
-2.18039e-06
3.12203e-07
-9.09252e-06
1.20869e-07
-3.89177e-06
-1.61573e-06
6.09277e-07
2.39119e-06
-4.44026e-06
9.04372e-07
4.83231e-06
-7.41591e-06
9.34171e-07
5.30287e-06
-9.89948e-06
8.86921e-07
4.37979e-06
-1.13817e-05
8.36718e-07
2.25133e-06
-1.13995e-05
8.01095e-07
-9.84947e-07
-9.62073e-06
7.67234e-07
-4.89304e-06
-6.15449e-06
7.077e-07
-8.16548e-06
-2.12972e-06
5.52592e-07
-8.45728e-06
1.85998e-07
-3.67148e-06
-1.35451e-06
6.32433e-07
2.41802e-06
-3.74019e-06
8.97691e-07
4.78017e-06
-6.29314e-06
9.21099e-07
5.30541e-06
-8.48169e-06
8.79849e-07
4.60838e-06
-9.86239e-06
8.45953e-07
2.86199e-06
-1.00014e-05
8.40564e-07
1.21487e-07
-8.55317e-06
8.42939e-07
-3.35405e-06
-5.55281e-06
8.00495e-07
-6.42155e-06
-1.96635e-06
6.11604e-07
-7.01014e-06
1.504e-07
-3.15279e-06
-9.27422e-07
3.75703e-07
2.22776e-06
-2.606e-06
4.90279e-07
4.23062e-06
-4.45108e-06
4.9742e-07
4.74041e-06
-6.09862e-06
4.77838e-07
4.35363e-06
-7.22001e-06
4.69104e-07
3.21209e-06
-7.45733e-06
4.86023e-07
1.28756e-06
-6.4907e-06
5.14764e-07
-1.27169e-06
-4.28414e-06
5.09703e-07
-3.75737e-06
-1.54361e-06
3.81244e-07
-4.61548e-06
3.73541e-08
-2.23902e-06
-3.36166e-07
1.33805e-06
-1.01012e-06
2.32253e-06
-1.78217e-06
2.59914e-06
-2.51883e-06
2.52466e-06
-3.07867e-06
2.15617e-06
-3.27396e-06
1.43442e-06
-2.91198e-06
3.56997e-07
-1.92989e-06
-8.50918e-07
-6.59916e-07
-1.5361e-06
-9.01997e-07
-4.27927e-07
-5.01179e-07
2.26716e-06
-1.23012e-06
-6.42312e-07
3.76705e-06
-2.13835e-06
-6.13354e-07
4.12072e-06
-3.05357e-06
-5.17822e-07
3.95771e-06
-3.86362e-06
-4.12812e-07
3.37903e-06
-4.35249e-06
-3.40968e-07
2.26426e-06
-4.19485e-06
-3.22157e-07
5.21523e-07
-3.10548e-06
-3.54042e-07
-1.58625e-06
-1.27927e-06
-3.15361e-07
-3.04694e-06
-5.64321e-09
-2.17563e-06
-1.21401e-06
-8.24664e-07
3.76526e-06
-3.3007e-06
-1.13939e-06
6.81439e-06
-5.56138e-06
-1.08692e-06
7.47466e-06
-7.6472e-06
-8.8961e-07
6.81123e-06
-9.25195e-06
-6.54381e-07
5.05841e-06
-9.95852e-06
-4.54269e-07
2.10743e-06
-9.23727e-06
-3.42479e-07
-1.97262e-06
-6.68107e-06
-3.54718e-07
-6.3129e-06
-2.77841e-06
-3.57811e-07
-8.47568e-06
-6.6431e-08
-4.95664e-06
-1.79245e-06
-7.80644e-07
4.16645e-06
-4.80224e-06
-1.12209e-06
7.77266e-06
-7.96161e-06
-1.06789e-06
8.44575e-06
-1.07202e-05
-8.50934e-07
7.32825e-06
-1.26508e-05
-5.80461e-07
4.71872e-06
-1.32556e-05
-3.2797e-07
5.99948e-07
-1.19998e-05
-1.73956e-07
-4.7783e-06
-8.5082e-06
-1.739e-07
-1.0094e-05
-3.48322e-06
-2.31959e-07
-1.2161e-05
-8.58238e-08
-6.61661e-06
-2.14799e-06
-4.5843e-07
4.21696e-06
-5.72786e-06
-6.72392e-07
7.96249e-06
-9.41039e-06
-6.3817e-07
8.55567e-06
-1.25074e-05
-4.98783e-07
7.12464e-06
-1.45247e-05
-3.21768e-07
4.00996e-06
-1.49678e-05
-1.52885e-07
-7.16965e-07
-1.33317e-05
-4.60093e-08
-6.65709e-06
-9.32443e-06
-4.63505e-08
-1.23003e-05
-3.76515e-06
-1.00723e-07
-1.41478e-05
-5.4289e-08
-7.46816e-06
-2.31112e-06
1.01606e-12
4.19674e-06
-6.15557e-06
4.01582e-13
7.9589e-06
-1.00717e-05
1.11617e-13
8.49404e-06
-1.33026e-05
5.62115e-14
6.91248e-06
-1.53274e-05
1.07812e-13
3.57965e-06
-1.5663e-05
1.34711e-13
-1.38656e-06
-1.38435e-05
1.65834e-13
-7.5066e-06
-9.6223e-06
2.09216e-13
-1.32305e-05
-3.86084e-06
2.36975e-13
-1.49547e-05
2.56273e-13
-7.8069e-06
-2.31112e-06
4.58432e-07
4.19674e-06
-6.15557e-06
6.72393e-07
7.9589e-06
-1.00717e-05
6.3817e-07
8.49404e-06
-1.33026e-05
4.98783e-07
6.91248e-06
-1.53274e-05
3.21768e-07
3.57965e-06
-1.5663e-05
1.52886e-07
-1.38656e-06
-1.38435e-05
4.60097e-08
-7.5066e-06
-9.6223e-06
4.6351e-08
-1.32305e-05
-3.86084e-06
1.00724e-07
-1.49547e-05
5.42896e-08
-7.8069e-06
-2.14799e-06
7.80646e-07
4.21696e-06
-5.72786e-06
1.12209e-06
7.96249e-06
-9.41039e-06
1.06789e-06
8.55567e-06
-1.25074e-05
8.50934e-07
7.12464e-06
-1.45247e-05
5.80462e-07
4.00996e-06
-1.49678e-05
3.27971e-07
-7.16965e-07
-1.33317e-05
1.73957e-07
-6.65709e-06
-9.32443e-06
1.739e-07
-1.23003e-05
-3.76515e-06
2.31959e-07
-1.41478e-05
8.58241e-08
-7.46816e-06
-1.79245e-06
8.24665e-07
4.16645e-06
-4.80224e-06
1.13939e-06
7.77266e-06
-7.96161e-06
1.08692e-06
8.44575e-06
-1.07202e-05
8.8961e-07
7.32825e-06
-1.26508e-05
6.54381e-07
4.71872e-06
-1.32556e-05
4.5427e-07
5.99949e-07
-1.19998e-05
3.4248e-07
-4.7783e-06
-8.5082e-06
3.54718e-07
-1.0094e-05
-3.48322e-06
3.57811e-07
-1.2161e-05
6.64312e-08
-6.61661e-06
-1.21401e-06
5.0118e-07
3.76526e-06
-3.3007e-06
6.42312e-07
6.81439e-06
-5.56138e-06
6.13354e-07
7.47466e-06
-7.6472e-06
5.17823e-07
6.81123e-06
-9.25195e-06
4.12812e-07
5.05841e-06
-9.95852e-06
3.40969e-07
2.10743e-06
-9.23727e-06
3.22158e-07
-1.97262e-06
-6.68107e-06
3.54043e-07
-6.3129e-06
-2.77841e-06
3.15361e-07
-8.47568e-06
5.6431e-09
-4.95664e-06
-4.27927e-07
2.26715e-06
-1.23013e-06
3.76705e-06
-2.13835e-06
4.12071e-06
-3.05357e-06
3.95771e-06
-3.86362e-06
3.37903e-06
-4.35249e-06
2.26426e-06
-4.19485e-06
5.21522e-07
-3.10548e-06
-1.58625e-06
-1.27927e-06
-3.04694e-06
-2.17563e-06
-5.36416e-07
-6.11717e-07
3.41529e-06
-1.42015e-06
-7.50812e-07
5.40159e-06
-2.3913e-06
-6.35567e-07
5.72744e-06
-3.44264e-06
-3.90733e-07
5.39977e-06
-4.5498e-06
-9.25649e-08
4.57876e-06
-5.51243e-06
1.69559e-07
3.05732e-06
-5.84461e-06
2.84828e-07
5.68878e-07
-4.88389e-06
1.72052e-07
-2.71902e-06
-2.41867e-06
-3.85631e-08
-5.4736e-06
-7.18912e-10
-4.59358e-06
-1.48846e-06
-9.87064e-07
5.62906e-06
-3.86761e-06
-1.30097e-06
9.7437e-06
-6.38472e-06
-1.08417e-06
1.04404e-05
-8.79891e-06
-5.99515e-07
9.43421e-06
-1.09175e-05
-4.43755e-09
7.08885e-06
-1.23347e-05
5.33487e-07
3.16075e-06
-1.22996e-05
8.08884e-07
-2.53183e-06
-9.84556e-06
6.33903e-07
-9.22877e-06
-4.77742e-06
1.74369e-07
-1.37568e-05
-6.4925e-09
-9.72829e-06
-2.17625e-06
-9.20144e-07
6.27578e-06
-5.62848e-06
-1.25776e-06
1.11817e-05
-9.15693e-06
-1.03285e-06
1.19229e-05
-1.22924e-05
-5.19663e-07
1.03839e-05
-1.4726e-05
1.13715e-07
7.03415e-06
-1.6001e-05
6.85378e-07
1.72302e-06
-1.54109e-05
9.75768e-07
-5.53526e-06
-1.20301e-05
7.90609e-07
-1.36315e-05
-5.75667e-06
2.90716e-07
-1.85508e-05
-3.88124e-10
-1.23794e-05
-2.59133e-06
-5.3471e-07
6.42285e-06
-6.69145e-06
-7.44359e-07
1.15492e-05
-1.07798e-05
-6.04449e-07
1.22156e-05
-1.4227e-05
-2.83445e-07
1.03356e-05
-1.66729e-05
1.11832e-07
6.4578e-06
-1.76896e-05
4.63757e-07
5.21287e-07
-1.67023e-05
6.36895e-07
-7.30548e-06
-1.28733e-05
5.13906e-07
-1.58526e-05
-6.12406e-06
2.01122e-07
-2.08075e-05
3.5698e-09
-1.35962e-05
-2.77789e-06
8.10827e-13
6.43992e-06
-7.17094e-06
3.17724e-13
1.16076e-05
-1.14965e-05
3.57907e-14
1.22152e-05
-1.50465e-05
-2.33132e-14
1.0179e-05
-1.74486e-05
3.19503e-14
6.09354e-06
-1.83027e-05
9.97239e-14
-6.86633e-08
-1.71378e-05
1.79844e-13
-8.03463e-06
-1.31522e-05
2.58221e-13
-1.67022e-05
-6.25133e-06
2.48044e-13
-2.16545e-05
2.13279e-13
-1.40547e-05
-2.77789e-06
5.34711e-07
6.43992e-06
-7.17094e-06
7.4436e-07
1.16076e-05
-1.14965e-05
6.04449e-07
1.22152e-05
-1.50465e-05
2.83446e-07
1.0179e-05
-1.74486e-05
-1.11832e-07
6.09354e-06
-1.83027e-05
-4.63756e-07
-6.86633e-08
-1.71378e-05
-6.36895e-07
-8.03463e-06
-1.31522e-05
-5.13906e-07
-1.67022e-05
-6.25133e-06
-2.01122e-07
-2.16545e-05
-3.56937e-09
-1.40547e-05
-2.59133e-06
9.20145e-07
6.42285e-06
-6.69145e-06
1.25776e-06
1.15492e-05
-1.07798e-05
1.03285e-06
1.22156e-05
-1.4227e-05
5.19663e-07
1.03356e-05
-1.66729e-05
-1.13715e-07
6.4578e-06
-1.76896e-05
-6.85378e-07
5.21287e-07
-1.67023e-05
-9.75768e-07
-7.30548e-06
-1.28733e-05
-7.90609e-07
-1.58526e-05
-6.12406e-06
-2.90716e-07
-2.08075e-05
3.88458e-10
-1.35962e-05
-2.17625e-06
9.87065e-07
6.27578e-06
-5.62848e-06
1.30097e-06
1.11817e-05
-9.15693e-06
1.08417e-06
1.19229e-05
-1.22924e-05
5.99516e-07
1.03839e-05
-1.4726e-05
4.4379e-09
7.03415e-06
-1.6001e-05
-5.33486e-07
1.72302e-06
-1.54109e-05
-8.08884e-07
-5.53526e-06
-1.20301e-05
-6.33903e-07
-1.36315e-05
-5.75667e-06
-1.74369e-07
-1.85508e-05
6.49281e-09
-1.23794e-05
-1.48846e-06
6.11717e-07
5.62906e-06
-3.86761e-06
7.50812e-07
9.7437e-06
-6.38472e-06
6.35567e-07
1.04404e-05
-8.79891e-06
3.90733e-07
9.43421e-06
-1.09175e-05
9.2565e-08
7.08884e-06
-1.23347e-05
-1.69558e-07
3.16075e-06
-1.22996e-05
-2.84828e-07
-2.53183e-06
-9.84556e-06
-1.72052e-07
-9.22877e-06
-4.77742e-06
3.85632e-08
-1.37568e-05
7.18858e-10
-9.72829e-06
-5.36416e-07
3.41529e-06
-1.42015e-06
5.40159e-06
-2.39131e-06
5.72744e-06
-3.44264e-06
5.39977e-06
-4.54981e-06
4.57876e-06
-5.51243e-06
3.05732e-06
-5.84461e-06
5.68878e-07
-4.88389e-06
-2.71902e-06
-2.41867e-06
-5.4736e-06
-4.59358e-06
-7.44542e-07
-7.07021e-07
4.86685e-06
-1.63323e-06
-8.01974e-07
7.09225e-06
-2.50194e-06
-5.3365e-07
7.1298e-06
-3.53271e-06
-4.6064e-08
6.47661e-06
-4.86944e-06
5.49573e-07
5.36591e-06
-6.41086e-06
1.10927e-06
3.48948e-06
-7.55914e-06
1.40231e-06
3.14853e-07
-7.17001e-06
1.1554e-06
-4.26355e-06
-4.24376e-06
4.69159e-07
-8.86901e-06
-6.54642e-08
-8.77187e-06
-1.82572e-06
-1.11214e-06
7.8599e-06
-4.29989e-06
-1.36305e-06
1.2779e-05
-6.71788e-06
-8.82309e-07
1.3207e-05
-9.08056e-06
2.06123e-08
1.17302e-05
-1.14362e-05
1.11396e-06
8.88012e-06
-1.35308e-05
2.10489e-06
4.2597e-06
-1.45406e-05
2.57662e-06
-2.69629e-06
-1.29389e-05
2.12188e-06
-1.1797e-05
-7.36933e-06
9.15733e-07
-1.97729e-05
-6.05472e-08
-1.71025e-05
-2.5485e-06
-1.01781e-06
8.72994e-06
-6.13048e-06
-1.29574e-06
1.46963e-05
-9.53083e-06
-8.14942e-07
1.52559e-05
-1.25044e-05
9.97069e-08
1.32784e-05
-1.4994e-05
1.18691e-06
9.45075e-06
-1.67578e-05
2.13218e-06
3.45952e-06
-1.71397e-05
2.5126e-06
-5.08926e-06
-1.47758e-05
2.00251e-06
-1.5876e-05
-8.32314e-06
8.5058e-07
-2.49383e-05
-2.9596e-08
-2.07335e-05
-2.96356e-06
-5.84352e-07
8.95296e-06
-7.18532e-06
-7.57813e-07
1.5233e-05
-1.10871e-05
-4.6605e-07
1.57685e-05
-1.4249e-05
8.98696e-08
1.35073e-05
-1.65835e-05
7.42055e-07
9.23717e-06
-1.79493e-05
1.29122e-06
2.72803e-06
-1.79077e-05
1.47613e-06
-6.3106e-06
-1.52667e-05
1.1419e-06
-1.76329e-05
-8.6272e-06
4.73782e-07
-2.70702e-05
-7.66273e-09
-2.22453e-05
-3.14223e-06
6.01329e-13
8.9978e-06
-7.64059e-06
1.7511e-13
1.53481e-05
-1.17369e-05
-8.71096e-14
1.58454e-05
-1.49288e-05
-1.32609e-13
1.34608e-05
-1.71299e-05
-4.80061e-14
9.03667e-06
-1.82893e-05
8.01351e-14
2.38203e-06
-1.80812e-05
2.01529e-13
-6.76668e-06
-1.53911e-05
2.70535e-13
-1.82503e-05
-8.73985e-06
2.37026e-13
-2.7832e-05
1.81922e-13
-2.28022e-05
-3.14223e-06
5.84353e-07
8.9978e-06
-7.64059e-06
7.57813e-07
1.53481e-05
-1.17369e-05
4.6605e-07
1.58454e-05
-1.49288e-05
-8.98698e-08
1.34608e-05
-1.71299e-05
-7.42055e-07
9.03667e-06
-1.82893e-05
-1.29122e-06
2.38203e-06
-1.80812e-05
-1.47613e-06
-6.76668e-06
-1.53911e-05
-1.1419e-06
-1.82503e-05
-8.73985e-06
-4.73781e-07
-2.7832e-05
7.66307e-09
-2.28022e-05
-2.96356e-06
1.01781e-06
8.95296e-06
-7.18532e-06
1.29574e-06
1.5233e-05
-1.10871e-05
8.14942e-07
1.57685e-05
-1.4249e-05
-9.97068e-08
1.35073e-05
-1.65835e-05
-1.18691e-06
9.23717e-06
-1.79493e-05
-2.13218e-06
2.72803e-06
-1.79077e-05
-2.5126e-06
-6.3106e-06
-1.52667e-05
-2.00251e-06
-1.76329e-05
-8.6272e-06
-8.5058e-07
-2.70702e-05
2.95964e-08
-2.22453e-05
-2.5485e-06
1.11214e-06
8.72994e-06
-6.13048e-06
1.36305e-06
1.46963e-05
-9.53083e-06
8.8231e-07
1.52559e-05
-1.25044e-05
-2.06121e-08
1.32784e-05
-1.4994e-05
-1.11396e-06
9.45075e-06
-1.67578e-05
-2.10489e-06
3.45952e-06
-1.71397e-05
-2.57662e-06
-5.08926e-06
-1.47758e-05
-2.12188e-06
-1.5876e-05
-8.32314e-06
-9.15733e-07
-2.49383e-05
6.05475e-08
-2.07335e-05
-1.82572e-06
7.07021e-07
7.85989e-06
-4.2999e-06
8.01974e-07
1.2779e-05
-6.71788e-06
5.3365e-07
1.3207e-05
-9.08056e-06
4.60642e-08
1.17302e-05
-1.14362e-05
-5.49573e-07
8.88012e-06
-1.35308e-05
-1.10927e-06
4.2597e-06
-1.45406e-05
-1.40231e-06
-2.69629e-06
-1.29389e-05
-1.15539e-06
-1.1797e-05
-7.36933e-06
-4.69159e-07
-1.97729e-05
6.54641e-08
-1.71025e-05
-7.44542e-07
4.86685e-06
-1.63323e-06
7.09225e-06
-2.50194e-06
7.1298e-06
-3.53272e-06
6.47661e-06
-4.86944e-06
5.36591e-06
-6.41086e-06
3.48948e-06
-7.55914e-06
3.14853e-07
-7.17001e-06
-4.26355e-06
-4.24376e-06
-8.86901e-06
-8.77187e-06
-1.28835e-06
-8.28363e-07
6.98356e-06
-1.98712e-06
-8.41628e-07
8.63265e-06
-2.3913e-06
-3.63204e-07
7.89718e-06
-3.01423e-06
4.22128e-07
6.67742e-06
-4.25606e-06
1.37215e-06
5.23559e-06
-6.22712e-06
2.31561e-06
3.14493e-06
-8.40611e-06
2.89174e-06
-3.979e-07
-9.18805e-06
2.55229e-06
-6.0339e-06
-6.47591e-06
1.20795e-06
-1.27891e-05
-2.76823e-07
-1.4971e-05
-2.50177e-06
-1.24024e-06
1.07735e-05
-4.67311e-06
-1.38919e-06
1.54979e-05
-6.2789e-06
-5.90752e-07
1.50403e-05
-7.75118e-06
7.53954e-07
1.28707e-05
-9.51631e-06
2.34339e-06
9.674e-06
-1.16668e-05
3.78759e-06
4.93826e-06
-1.36359e-05
4.48142e-06
-2.3169e-06
-1.3704e-05
3.72694e-06
-1.29035e-05
-9.28871e-06
1.60505e-06
-2.45854e-05
-3.86547e-07
-2.62815e-05
-3.15095e-06
-1.10074e-06
1.17414e-05
-6.32062e-06
-1.28974e-06
1.77666e-05
-8.69883e-06
-5.29394e-07
1.75727e-05
-1.04696e-05
7.60828e-07
1.50423e-05
-1.19752e-05
2.24325e-06
1.10565e-05
-1.34049e-05
3.49284e-06
5.18399e-06
-1.45153e-05
3.93998e-06
-3.4375e-06
-1.40348e-05
3.08322e-06
-1.57128e-05
-9.51223e-06
1.20417e-06
-2.906e-05
-3.07524e-07
-3.03247e-05
-3.48897e-06
-6.20546e-07
1.19617e-05
-7.19272e-06
-7.43318e-07
1.83904e-05
-9.92414e-06
-2.9542e-07
1.8266e-05
-1.16988e-05
4.65469e-07
1.55773e-05
-1.28457e-05
1.32014e-06
1.13072e-05
-1.37075e-05
2.00312e-06
5.07947e-06
-1.43429e-05
2.18682e-06
-3.92199e-06
-1.37771e-05
1.63898e-06
-1.67544e-05
-9.49837e-06
5.99376e-07
-3.07442e-05
-1.53447e-07
-3.18978e-05
-3.62297e-06
4.20919e-13
1.20002e-05
-7.54153e-06
5.07773e-14
1.85234e-05
-1.03913e-05
-1.73529e-13
1.83998e-05
-1.21136e-05
-1.91432e-13
1.56486e-05
-1.30548e-05
-6.15402e-14
1.1298e-05
-1.36627e-05
1.03777e-13
4.99308e-06
-1.41526e-05
2.327e-13
-4.08994e-06
-1.36488e-05
2.8076e-13
-1.71152e-05
-9.52492e-06
2.45777e-13
-3.13565e-05
2.26437e-13
-3.24805e-05
-3.62297e-06
6.20547e-07
1.20002e-05
-7.54153e-06
7.43318e-07
1.85234e-05
-1.03913e-05
2.95419e-07
1.83998e-05
-1.21136e-05
-4.65469e-07
1.56486e-05
-1.30548e-05
-1.32014e-06
1.1298e-05
-1.36627e-05
-2.00312e-06
4.99308e-06
-1.41526e-05
-2.18682e-06
-4.08994e-06
-1.36488e-05
-1.63898e-06
-1.71152e-05
-9.52492e-06
-5.99376e-07
-3.13565e-05
1.53447e-07
-3.24805e-05
-3.48897e-06
1.10074e-06
1.19617e-05
-7.19272e-06
1.28974e-06
1.83904e-05
-9.92414e-06
5.29394e-07
1.8266e-05
-1.16988e-05
-7.60828e-07
1.55773e-05
-1.28457e-05
-2.24325e-06
1.13072e-05
-1.37075e-05
-3.49284e-06
5.07947e-06
-1.43429e-05
-3.93998e-06
-3.92199e-06
-1.37771e-05
-3.08322e-06
-1.67544e-05
-9.49837e-06
-1.20417e-06
-3.07442e-05
3.07524e-07
-3.18978e-05
-3.15095e-06
1.24024e-06
1.17414e-05
-6.32062e-06
1.38919e-06
1.77666e-05
-8.69883e-06
5.90752e-07
1.75727e-05
-1.04696e-05
-7.53954e-07
1.50423e-05
-1.19752e-05
-2.34339e-06
1.10565e-05
-1.34049e-05
-3.78759e-06
5.18399e-06
-1.45153e-05
-4.48142e-06
-3.4375e-06
-1.40348e-05
-3.72694e-06
-1.57128e-05
-9.51223e-06
-1.60505e-06
-2.906e-05
3.86547e-07
-3.03247e-05
-2.50177e-06
8.28363e-07
1.07735e-05
-4.67311e-06
8.41628e-07
1.54979e-05
-6.2789e-06
3.63204e-07
1.50403e-05
-7.75118e-06
-4.22128e-07
1.28707e-05
-9.51632e-06
-1.37215e-06
9.674e-06
-1.16668e-05
-2.31561e-06
4.93826e-06
-1.36359e-05
-2.89174e-06
-2.3169e-06
-1.3704e-05
-2.55229e-06
-1.29035e-05
-9.28871e-06
-1.20795e-06
-2.45854e-05
2.76823e-07
-2.62815e-05
-1.28835e-06
6.98356e-06
-1.98712e-06
8.63265e-06
-2.3913e-06
7.89718e-06
-3.01423e-06
6.67742e-06
-4.25606e-06
5.23559e-06
-6.22712e-06
3.14493e-06
-8.40611e-06
-3.979e-07
-9.18805e-06
-6.0339e-06
-6.47591e-06
-1.27891e-05
-1.4971e-05
-2.52885e-06
-1.09423e-06
1.06066e-05
-2.38053e-06
-1.07991e-06
9.56423e-06
-1.49188e-06
-4.21122e-07
7.42966e-06
-9.32543e-07
6.04143e-07
5.51394e-06
-1.36877e-06
1.82073e-06
3.85109e-06
-3.16064e-06
3.07351e-06
1.86329e-06
-6.17551e-06
3.99729e-06
-1.38031e-06
-8.67863e-06
3.70125e-06
-7.23203e-06
-7.66143e-06
1.67362e-06
-1.54799e-05
-9.69217e-07
-2.16632e-05
-4.16352e-06
-1.52019e-06
1.5363e-05
-5.00016e-06
-1.65681e-06
1.69114e-05
-4.31161e-06
-6.60895e-07
1.45916e-05
-3.36678e-06
9.18336e-07
1.16116e-05
-3.04876e-06
2.75726e-06
8.41945e-06
-3.8874e-06
4.47449e-06
4.3759e-06
-5.96796e-06
5.4689e-06
-1.70796e-06
-8.197e-06
4.65526e-06
-1.16284e-05
-7.50427e-06
1.71827e-06
-2.53228e-05
-1.31172e-06
-3.34433e-05
-4.80496e-06
-1.27688e-06
1.6303e-05
-6.37835e-06
-1.4624e-06
1.91456e-05
-6.05186e-06
-5.69049e-07
1.71544e-05
-4.92296e-06
8.53376e-07
1.39784e-05
-3.83286e-06
2.45169e-06
1.02719e-05
-3.45421e-06
3.8343e-06
5.44553e-06
-4.25765e-06
4.45337e-06
-1.61853e-06
-6.03493e-06
3.52964e-06
-1.28098e-05
-6.12264e-06
1.11694e-06
-2.83709e-05
-9.5737e-07
-3.68017e-05
-5.06038e-06
-6.96419e-07
1.64417e-05
-6.99481e-06
-8.17691e-07
1.96801e-05
-6.82916e-06
-3.09008e-07
1.78403e-05
-5.54576e-06
4.99392e-07
1.46479e-05
-3.98527e-06
1.38634e-06
1.08121e-05
-2.95213e-06
2.11331e-06
5.76731e-06
-3.20259e-06
2.37453e-06
-1.5927e-06
-4.98768e-06
1.7975e-06
-1.32372e-05
-5.64692e-06
5.2233e-07
-2.94903e-05
-4.52546e-07
-3.80495e-05
-5.14071e-06
2.85616e-13
1.64445e-05
-7.20117e-06
-9.23604e-15
1.97662e-05
-7.07391e-06
-1.91332e-13
1.79635e-05
-5.69878e-06
-2.07116e-13
1.47729e-05
-3.93245e-06
-8.9391e-14
1.0918e-05
-2.66134e-06
5.69976e-14
5.83528e-06
-2.77496e-06
1.84336e-13
-1.60179e-06
-4.67574e-06
2.35605e-13
-1.34169e-05
-5.58558e-06
2.17108e-13
-2.99243e-05
2.29027e-13
-3.85187e-05
-5.14071e-06
6.9642e-07
1.64445e-05
-7.20117e-06
8.17691e-07
1.97662e-05
-7.07391e-06
3.09008e-07
1.79635e-05
-5.69878e-06
-4.99392e-07
1.47729e-05
-3.93245e-06
-1.38634e-06
1.0918e-05
-2.66134e-06
-2.11331e-06
5.83528e-06
-2.77496e-06
-2.37453e-06
-1.60179e-06
-4.67574e-06
-1.7975e-06
-1.34169e-05
-5.58558e-06
-5.22329e-07
-2.99243e-05
4.52546e-07
-3.85187e-05
-5.06038e-06
1.27688e-06
1.64417e-05
-6.99481e-06
1.4624e-06
1.96801e-05
-6.82916e-06
5.69049e-07
1.78403e-05
-5.54576e-06
-8.53377e-07
1.46479e-05
-3.98527e-06
-2.45169e-06
1.08121e-05
-2.95213e-06
-3.8343e-06
5.76731e-06
-3.20259e-06
-4.45337e-06
-1.5927e-06
-4.98768e-06
-3.52964e-06
-1.32372e-05
-5.64692e-06
-1.11694e-06
-2.94903e-05
9.57371e-07
-3.80495e-05
-4.80496e-06
1.52019e-06
1.6303e-05
-6.37835e-06
1.65681e-06
1.91456e-05
-6.05186e-06
6.60895e-07
1.71544e-05
-4.92296e-06
-9.18336e-07
1.39784e-05
-3.83286e-06
-2.75726e-06
1.02719e-05
-3.45421e-06
-4.47449e-06
5.44553e-06
-4.25765e-06
-5.4689e-06
-1.61853e-06
-6.03493e-06
-4.65526e-06
-1.28098e-05
-6.12264e-06
-1.71827e-06
-2.83709e-05
1.31172e-06
-3.68017e-05
-4.16352e-06
1.09423e-06
1.5363e-05
-5.00016e-06
1.07991e-06
1.69114e-05
-4.31161e-06
4.21122e-07
1.45916e-05
-3.36678e-06
-6.04143e-07
1.16116e-05
-3.04876e-06
-1.82073e-06
8.41945e-06
-3.8874e-06
-3.07351e-06
4.37591e-06
-5.96796e-06
-3.99729e-06
-1.70795e-06
-8.197e-06
-3.70125e-06
-1.16284e-05
-7.50427e-06
-1.67362e-06
-2.53228e-05
9.69217e-07
-3.34433e-05
-2.52885e-06
1.06066e-05
-2.38053e-06
9.56423e-06
-1.49188e-06
7.42966e-06
-9.32543e-07
5.51394e-06
-1.36877e-06
3.85109e-06
-3.16064e-06
1.86329e-06
-6.17551e-06
-1.38031e-06
-8.67863e-06
-7.23203e-06
-7.66143e-06
-1.54799e-05
-2.16632e-05
-2.70075e-06
-1.84996e-06
1.51574e-05
4.04866e-07
-1.94538e-06
8.404e-06
4.38576e-06
-1.17731e-06
4.62607e-06
7.23468e-06
-1.47178e-07
2.8122e-06
8.45358e-06
1.07632e-06
1.55587e-06
7.58083e-06
2.36904e-06
3.67e-07
4.31132e-06
3.56527e-06
-1.67606e-06
-6.31735e-07
3.49856e-06
-5.78754e-06
-3.47861e-06
9.80027e-07
-1.36131e-05
-2.66897e-06
-2.24728e-05
-4.8463e-06
-2.20748e-06
2.05668e-05
-9.64523e-07
-2.62859e-06
1.37128e-05
4.83939e-06
-1.75415e-06
9.3645e-06
9.94279e-06
-3.29313e-07
6.69038e-06
1.36375e-05
1.32348e-06
4.47759e-06
1.52129e-05
2.98707e-06
2.18246e-06
1.38218e-05
4.30561e-06
-1.05723e-06
9.15995e-06
3.92305e-06
-7.39105e-06
3.02507e-06
7.9571e-07
-1.90036e-05
-2.69136e-06
-3.03958e-05
-5.62319e-06
-1.67746e-06
2.13962e-05
-1.96268e-06
-2.13339e-06
1.49898e-05
3.98268e-06
-1.45271e-06
1.09076e-05
9.7508e-06
-2.96963e-07
8.1779e-06
1.45719e-05
1.04303e-06
5.73129e-06
1.76221e-05
2.32886e-06
3.05354e-06
1.76217e-05
3.23401e-06
-5.46532e-07
1.34913e-05
2.83225e-06
-7.58867e-06
5.61323e-06
5.27292e-07
-2.02244e-05
-1.67237e-06
-3.22075e-05
-5.81368e-06
-8.66336e-07
2.14442e-05
-2.30091e-06
-1.13595e-06
1.51699e-05
3.63182e-06
-7.72246e-07
1.12271e-05
9.59533e-06
-1.55373e-07
8.54278e-06
1.48201e-05
5.56858e-07
6.07347e-06
1.8395e-05
1.2206e-06
3.30069e-06
1.88014e-05
1.65073e-06