/*--------------------------------*- C++ -*----------------------------------*\
  =========                 |
  \\      /  F ield         | OpenFOAM: The Open Source CFD Toolbox
   \\    /   O peration     | Website:  https://openfoam.org
    \\  /    A nd           | Version:  9
     \\/     M anipulation  |
\*---------------------------------------------------------------------------*/
FoamFile
{
    format      ascii;
    class       volScalarField;
    location    "0.69";
    object      p;
}
// * * * * * * * * * * * * * * * * * * * * * * * * * * * * * * * * * * * * * //

dimensions      [0 2 -2 0 0 0 0];

internalField   nonuniform List<scalar> 
1000
(
7.40993e-07
-0.000480634
-0.000156176
0.000920567
0.00281885
0.00540981
0.00823492
0.0105355
0.0116099
0.0107588
0.000173136
-0.000717831
-0.000500691
0.000620177
0.00269784
0.00558505
0.0087496
0.0112682
0.0122866
0.0108894
0.000940807
-0.000221789
-4.27748e-05
0.00117759
0.0035012
0.00675476
0.0102983
0.0129634
0.0137381
0.0116045
0.00176826
0.000425715
0.000591542
0.00191152
0.0044599
0.00804819
0.0118575
0.01458
0.0150986
0.0123778
0.00228722
0.000860018
0.00102502
0.00240413
0.00507628
0.00883634
0.0127913
0.0155262
0.0158906
0.0128586
0.00228729
0.000860077
0.00102506
0.00240416
0.0050763
0.00883635
0.0127913
0.0155262
0.0158906
0.0128586
0.0017685
0.000425911
0.00059169
0.00191162
0.00445996
0.00804822
0.0118575
0.0145801
0.0150986
0.0123778
0.00094129
-0.000221417
-4.25156e-05
0.00117775
0.00350129
0.00675481
0.0102984
0.0129634
0.0137381
0.0116045
0.000174078
-0.000717221
-0.000500314
0.000620401
0.00269795
0.00558511
0.00874963
0.0112682
0.0122866
0.0108894
2.78711e-06
-0.000479726
-0.000155688
0.000920837
0.00281899
0.00540988
0.00823495
0.0105355
0.0116099
0.0107588
0.000401821
-2.76984e-05
0.00031722
0.00126789
0.00292059
0.0052238
0.00781401
0.010027
0.0111217
0.00998905
0.000938625
2.68138e-05
0.000289712
0.0012303
0.00291714
0.00531287
0.00804617
0.0103846
0.0114401
0.00965367
0.00213868
0.000824816
0.00102039
0.00195779
0.00371261
0.00625205
0.00922158
0.0116387
0.0124907
0.0099568
0.00327372
0.00165424
0.00178962
0.00272675
0.00455612
0.00726535
0.0104021
0.0128495
0.0134958
0.0104147
0.00394814
0.00216648
0.00226801
0.00320513
0.00507688
0.00788683
0.0111099
0.01356
0.0140843
0.0107323
0.0039482
0.00216653
0.00226805
0.00320516
0.0050769
0.00788685
0.0111099
0.01356
0.0140843
0.0107323
0.00327391
0.00165441
0.00178975
0.00272684
0.00455617
0.00726538
0.0104021
0.0128495
0.0134958
0.0104148
0.00213905
0.000825119
0.00102061
0.00195793
0.00371269
0.00625209
0.00922161
0.0116387
0.0124908
0.00995682
0.000939239
2.72723e-05
0.00029002
0.00123049
0.00291724
0.00531292
0.00804621
0.0103846
0.0114401
0.00965368
0.000402745
-2.70964e-05
0.000317597
0.00126811
0.0029207
0.00522386
0.00781406
0.0100271
0.0111217
0.00998905
-0.000938083
-0.00150165
-0.00127406
-0.000521819
0.000956483
0.00328248
0.00623736
0.00914017
0.0109022
0.00959932
-8.15142e-05
-0.00129331
-0.0011513
-0.000404612
0.00111138
0.00355592
0.00670756
0.0097826
0.0114726
0.00902636
0.0016337
-0.00015798
-0.000142248
0.000512283
0.00200448
0.0045563
0.00791893
0.0111228
0.0126146
0.009125
0.00318987
0.000957784
0.000851452
0.00141584
0.0028918
0.00554298
0.00904314
0.0122959
0.0135867
0.00939873
0.0040932
0.00162739
0.00144943
0.00196102
0.00342923
0.00612876
0.00969255
0.0129502
0.0141225
0.00961031
0.00409325
0.00162743
0.00144947
0.00196105
0.00342925
0.00612878
0.00969256
0.0129502
0.0141225
0.00961032
0.00319002
0.000957906
0.000851559
0.00141592
0.00289186
0.00554302
0.00904318
0.012296
0.0135867
0.00939876
0.00163396
-0.000157768
-0.000142078
0.000512402
0.00200456
0.00455636
0.00791898
0.0111228
0.0126147
0.00912503
-8.11415e-05
-0.001293
-0.00115107
-0.000404461
0.00111147
0.00355598
0.00670761
0.00978264
0.0114726
0.00902639
-0.000937608
-0.00150128
-0.0012738
-0.000521656
0.000956579
0.00328254
0.00623741
0.00914021
0.0109022
0.00959935
-0.00440921
-0.00509984
-0.00504382
-0.00456659
-0.00328759
-0.000777659
0.00302685
0.00750845
0.0109641
0.0100712
-0.00323114
-0.00472176
-0.0047544
-0.00426518
-0.00291522
-0.000229725
0.00387598
0.00869107
0.0120792
0.00945502
-0.000988667
-0.00323818
-0.00350247
-0.00325884
-0.0020987
0.000598771
0.00485763
0.00993259
0.0132509
0.009454
0.00100608
-0.00181797
-0.00230778
-0.00230594
-0.00133408
0.00129357
0.00567057
0.0108678
0.0140822
0.00958901
0.00214948
-0.00097823
-0.00160041
-0.0017391
-0.000870892
0.00171842
0.0061137
0.0113418
0.0144906
0.00970439
0.00214951
-0.000978197
-0.00160038
-0.00173907
-0.000870872
0.00171844
0.00611371
0.0113418
0.0144906
0.0097044
0.00100618
-0.00181788
-0.00230769
-0.00230587
-0.00133403
0.00129361
0.0056706
0.0108678
0.0140822
0.00958903
-0.000988498
-0.00323803
-0.00350234
-0.00325874
-0.00209863
0.000598822
0.00485768
0.00993263
0.0132509
0.00945403
-0.00323091
-0.00472155
-0.00475423
-0.00426505
-0.00291514
-0.000229662
0.00387603
0.00869112
0.0120793
0.00945507
-0.00440894
-0.00509959
-0.00504363
-0.00456646
-0.0032875
-0.000777596
0.0030269
0.0075085
0.0109642
0.0100712
-0.0106963
-0.0113442
-0.0113858
-0.0112023
-0.0101901
-0.00742195
-0.00227065
0.00496311
0.0117698
0.0129685
-0.00923651
-0.010813
-0.0109648
-0.0107878
-0.00971011
-0.00682188
-0.00136674
0.00642307
0.0133997
0.0127408
-0.00657395
-0.00907545
-0.00963507
-0.00997437
-0.00942975
-0.00686372
-0.00142042
0.00680653
0.014099
0.0127508
-0.00424776
-0.00744217
-0.00838388
-0.00920079
-0.00911882
-0.00683751
-0.00148573
0.00695758
0.0144346
0.0128059
-0.00293058
-0.00648798
-0.00764872
-0.00873155
-0.00889867
-0.00679848
-0.00150479
0.00700168
0.014545
0.0128381
-0.00293055
-0.00648795
-0.00764869
-0.00873153
-0.00889866
-0.00679846
-0.00150478
0.00700169
0.014545
0.0128381
-0.00424768
-0.00744209
-0.0083838
-0.00920073
-0.00911878
-0.00683748
-0.00148571
0.0069576
0.0144346
0.0128059
-0.00657383
-0.00907534
-0.00963496
-0.00997429
-0.0094297
-0.00686368
-0.00142038
0.00680657
0.0140991
0.0127508
-0.00923636
-0.0108128
-0.0109647
-0.0107877
-0.00971003
-0.00682183
-0.0013667
0.00642312
0.0133998
0.0127408
-0.0106961
-0.011344
-0.0113857
-0.0112022
-0.01019
-0.00742189
-0.00227059
0.00496317
0.0117698
0.0129685
-0.0204329
-0.0205032
-0.0202795
-0.0202405
-0.0194774
-0.016481
-0.00959686
0.00171613
0.0145298
0.0211807
-0.0187207
-0.0198717
-0.0198441
-0.0199401
-0.019376
-0.016653
-0.00994095
0.00189795
0.0153635
0.0215381
-0.0157705
-0.0179974
-0.0186323
-0.0196547
-0.020147
-0.0183766
-0.0121656
0.00019333
0.0147408
0.0215576
-0.0132555
-0.0162625
-0.0174747
-0.0192773
-0.020604
-0.0195537
-0.0137129
-0.0011041
0.0140845
0.0214779
-0.0118542
-0.0152624
-0.0167932
-0.0190054
-0.0207454
-0.0200174
-0.0144019
-0.00173105
0.0137208
0.021404
-0.0118542
-0.0152624
-0.0167931
-0.0190054
-0.0207454
-0.0200174
-0.0144019
-0.00173104
0.0137208
0.021404
-0.0132554
-0.0162624
-0.0174747
-0.0192773
-0.020604
-0.0195537
-0.0137128
-0.00110408
0.0140846
0.0214779
-0.0157705
-0.0179973
-0.0186322
-0.0196547
-0.020147
-0.0183766
-0.0121656
0.000193363
0.0147408
0.0215576
-0.0187206
-0.0198716
-0.019844
-0.01994
-0.019376
-0.0166529
-0.00994091
0.00189799
0.0153636
0.0215381
-0.0204327
-0.020503
-0.0202794
-0.0202404
-0.0194774
-0.0164809
-0.0095968
0.00171619
0.0145299
0.0211808
-0.0347097
-0.0324715
-0.0309912
-0.0305537
-0.0298936
-0.0267583
-0.0182218
-0.0016411
0.0202737
0.0389887
-0.032548
-0.031691
-0.0306458
-0.0307129
-0.0308121
-0.028823
-0.0215435
-0.00513994
0.0179454
0.0391035
-0.0292917
-0.0296171
-0.0295403
-0.0310319
-0.032865
-0.0326938
-0.026745
-0.0100332
0.0148834
0.0389467
-0.026644
-0.0277737
-0.0284528
-0.0310157
-0.0340577
-0.0350466
-0.0298808
-0.0129868
0.012974
0.038809
-0.0252085
-0.0267398
-0.0278175
-0.0309062
-0.0345013
-0.0359942
-0.0311739
-0.0142345
0.0121458
0.0387274
-0.0252085
-0.0267398
-0.0278175
-0.0309062
-0.0345013
-0.0359942
-0.0311739
-0.0142345
0.0121458
0.0387274
-0.0266439
-0.0277736
-0.0284528
-0.0310157
-0.0340577
-0.0350466
-0.0298808
-0.0129868
0.012974
0.038809
-0.0292916
-0.0296171
-0.0295402
-0.0310319
-0.032865
-0.0326938
-0.026745
-0.0100331
0.0148835
0.0389467
-0.0325479
-0.0316909
-0.0306458
-0.0307128
-0.0308121
-0.0288229
-0.0215434
-0.00513991
0.0179455
0.0391035
-0.0347096
-0.0324715
-0.0309912
-0.0305537
-0.0298936
-0.0267582
-0.0182218
-0.00164106
0.0202737
0.0389887
-0.057353
-0.0468293
-0.0420295
-0.0399297
-0.0388087
-0.0353208
-0.0254915
-0.00299502
0.0303789
0.0732671
-0.0540648
-0.0453616
-0.0414334
-0.0406148
-0.041077
-0.039831
-0.0329408
-0.0119882
0.0226198
0.0737246
-0.049894
-0.0424374
-0.0396945
-0.040864
-0.0437148
-0.0449177
-0.0401162
-0.0190723
0.0178971
0.0751557
-0.0468043
-0.0401071
-0.0381884
-0.0406466
-0.044994
-0.0475798
-0.0438405
-0.0224858
0.0159096
0.0765042
-0.0452228
-0.0388878
-0.0373864
-0.0404362
-0.045416
-0.0485475
-0.0452447
-0.023736
0.0152739
0.0771564
-0.0452228
-0.0388878
-0.0373864
-0.0404362
-0.045416
-0.0485475
-0.0452447
-0.023736
0.0152739
0.0771564
-0.0468043
-0.0401071
-0.0381884
-0.0406466
-0.044994
-0.0475798
-0.0438405
-0.0224858
0.0159096
0.0765043
-0.049894
-0.0424374
-0.0396945
-0.040864
-0.0437148
-0.0449177
-0.0401162
-0.0190723
0.0178971
0.0751557
-0.0540648
-0.0453616
-0.0414334
-0.0406148
-0.0410769
-0.039831
-0.0329407
-0.0119882
0.0226198
0.0737246
-0.057353
-0.0468293
-0.0420295
-0.0399296
-0.0388086
-0.0353207
-0.0254915
-0.00299499
0.030379
0.0732671
-0.0888966
-0.0610984
-0.0518199
-0.0461686
-0.0434226
-0.0388653
-0.0262333
0.00474882
0.0516804
0.150888
-0.0812203
-0.0571553
-0.0504069
-0.0471749
-0.0467977
-0.0449802
-0.0360776
-0.00604577
0.0452996
0.162518
-0.0748114
-0.0523448
-0.0471572
-0.0464494
-0.0490058
-0.049851
-0.0430252
-0.0113664
0.0463239
0.17156
-0.0708185
-0.049056
-0.0447583
-0.0455755
-0.0498394
-0.0521584
-0.0461555
-0.0131996
0.0476178
0.177254
-0.068975
-0.0474808
-0.0436011
-0.0450943
-0.0500691
-0.0529754
-0.047259
-0.0137794
0.0483298
0.179726
-0.068975
-0.0474808
-0.0436011
-0.0450943
-0.0500691
-0.0529754
-0.047259
-0.0137794
0.0483298
0.179726
-0.0708185
-0.049056
-0.0447583
-0.0455755
-0.0498394
-0.0521584
-0.0461555
-0.0131995
0.0476178
0.177254
-0.0748114
-0.0523448
-0.0471572
-0.0464494
-0.0490058
-0.049851
-0.0430252
-0.0113664
0.0463239
0.17156
-0.0812202
-0.0571553
-0.0504069
-0.0471748
-0.0467977
-0.0449802
-0.0360776
-0.00604574
0.0452996
0.162518
-0.0888966
-0.0610983
-0.0518199
-0.0461685
-0.0434225
-0.0388652
-0.0262332
0.00474885
0.0516804
0.150888
-0.199174
-0.0737965
-0.0487678
-0.0402732
-0.0359638
-0.0292154
-0.012334
0.0328525
0.119048
0.32466
-0.186884
-0.0610876
-0.0409726
-0.0368903
-0.0362391
-0.0328208
-0.0183451
0.0296649
0.129536
0.359279
-0.177991
-0.0521758
-0.0343251
-0.0333229
-0.0358662
-0.0348357
-0.0213516
0.0297496
0.138836
0.380126
-0.172856
-0.0471276
-0.030294
-0.0310133
-0.0353953
-0.0356867
-0.0225299
0.0302128
0.143441
0.39014
-0.170599
-0.0449533
-0.0285428
-0.0299899
-0.0351498
-0.0360062
-0.0229834
0.030413
0.145194
0.393953
-0.170599
-0.0449532
-0.0285428
-0.0299899
-0.0351498
-0.0360062
-0.0229834
0.030413
0.145194
0.393953
-0.172856
-0.0471276
-0.030294
-0.0310132
-0.0353952
-0.0356867
-0.0225299
0.0302128
0.143441
0.39014
-0.177991
-0.0521757
-0.034325
-0.0333228
-0.0358661
-0.0348356
-0.0213515
0.0297496
0.138836
0.380126
-0.186884
-0.0610875
-0.0409725
-0.0368902
-0.036239
-0.0328207
-0.018345
0.0296649
0.129536
0.359279
-0.199174
-0.0737964
-0.0487678
-0.0402732
-0.0359638
-0.0292154
-0.012334
0.0328526
0.119048
0.32466
)
;

boundaryField
{
    top
    {
        type            zeroGradient;
    }
    others
    {
        type            zeroGradient;
    }
}


// ************************************************************************* //
