/*--------------------------------*- C++ -*----------------------------------*\
  =========                 |
  \\      /  F ield         | OpenFOAM: The Open Source CFD Toolbox
   \\    /   O peration     | Website:  https://openfoam.org
    \\  /    A nd           | Version:  9
     \\/     M anipulation  |
\*---------------------------------------------------------------------------*/
FoamFile
{
    format      ascii;
    class       surfaceScalarField;
    location    "0.69";
    object      phi;
}
// * * * * * * * * * * * * * * * * * * * * * * * * * * * * * * * * * * * * * //

dimensions      [0 3 -1 0 0 0 0];

internalField   nonuniform List<scalar> 
2700
(
-5.88365e-08
-1.06479e-07
1.65294e-07
-3.02901e-07
-1.18918e-07
3.62982e-07
-6.26827e-07
-1.1951e-07
4.43437e-07
-9.46162e-07
-1.40878e-07
4.60213e-07
-1.17218e-06
-1.93458e-07
4.1948e-07
-1.2062e-06
-2.7159e-07
3.05605e-07
-9.81515e-07
-3.47603e-07
1.2292e-07
-5.40822e-07
-3.71597e-07
-6.90956e-08
-1.03524e-07
-2.96924e-07
-1.40374e-07
-9.82272e-08
-5.29718e-09
-1.58249e-07
-2.31514e-07
2.83284e-07
-6.86145e-07
-3.07507e-07
7.16485e-07
-1.3548e-06
-3.28743e-07
8.77885e-07
-1.98236e-06
-3.69865e-07
8.56553e-07
-2.39679e-06
-4.53269e-07
6.74238e-07
-2.42211e-06
-5.67375e-07
3.21109e-07
-1.949e-06
-6.65054e-07
-1.55665e-07
-1.07883e-06
-6.72663e-07
-5.69097e-07
-2.34283e-07
-5.32684e-07
-6.08791e-07
-2.1573e-07
-1.16781e-07
-2.36322e-07
-2.52689e-07
2.57498e-07
-9.57726e-07
-3.59563e-07
7.73459e-07
-1.84803e-06
-3.92664e-07
9.54229e-07
-2.66041e-06
-4.35043e-07
8.77555e-07
-3.16895e-06
-5.11799e-07
5.67067e-07
-3.15361e-06
-6.12361e-07
2.96467e-08
-2.48467e-06
-6.84804e-07
-6.49186e-07
-1.32326e-06
-6.72563e-07
-1.16151e-06
-2.50391e-07
-5.31108e-07
-1.07445e-06
-2.33772e-07
-2.32348e-07
-2.8958e-07
-1.60197e-07
1.97087e-07
-1.13885e-06
-2.3477e-07
7.24474e-07
-2.17194e-06
-2.58537e-07
8.98966e-07
-3.09742e-06
-2.84416e-07
7.74859e-07
-3.65429e-06
-3.28099e-07
3.73167e-07
-3.58493e-06
-3.82532e-07
-2.99184e-07
-2.77054e-06
-4.19485e-07
-1.07971e-06
-1.4172e-06
-4.05952e-07
-1.61995e-06
-2.22428e-07
-3.20485e-07
-1.4054e-06
-1.4673e-07
-3.09471e-07
-3.171e-07
-4.03067e-13
1.56904e-07
-1.23055e-06
-3.19374e-13
6.78677e-07
-2.33416e-06
-2.4916e-13
8.45076e-07
-3.31316e-06
-2.68846e-13
6.94581e-07
-3.88793e-06
-1.398e-13
2.46674e-07
-3.7866e-06
-8.13347e-14
-4.83857e-07
-2.89311e-06
-7.24835e-14
-1.31298e-06
-1.44466e-06
-4.83616e-14
-1.8544e-06
-1.98454e-07
-1.29533e-14
-1.56669e-06
-5.02538e-14
-3.45184e-07
-3.171e-07
1.60196e-07
1.56904e-07
-1.23055e-06
2.34769e-07
6.78677e-07
-2.33416e-06
2.58536e-07
8.45076e-07
-3.31316e-06
2.84416e-07
6.94581e-07
-3.88793e-06
3.28099e-07
2.46674e-07
-3.7866e-06
3.82532e-07
-4.83857e-07
-2.89311e-06
4.19485e-07
-1.31298e-06
-1.44466e-06
4.05952e-07
-1.8544e-06
-1.98454e-07
3.20485e-07
-1.56669e-06
1.4673e-07
-3.45184e-07
-2.89579e-07
2.52688e-07
1.97088e-07
-1.13885e-06
3.59562e-07
7.24474e-07
-2.17194e-06
3.92663e-07
8.98966e-07
-3.09742e-06
4.35042e-07
7.74859e-07
-3.65429e-06
5.11799e-07
3.73167e-07
-3.58493e-06
6.12361e-07
-2.99184e-07
-2.77054e-06
6.84804e-07
-1.07971e-06
-1.4172e-06
6.72563e-07
-1.61995e-06
-2.22428e-07
5.31108e-07
-1.4054e-06
2.33772e-07
-3.09471e-07
-2.36322e-07
2.31511e-07
2.57498e-07
-9.57725e-07
3.07505e-07
7.7346e-07
-1.84803e-06
3.28742e-07
9.54229e-07
-2.66041e-06
3.69865e-07
8.77555e-07
-3.16895e-06
4.53269e-07
5.67067e-07
-3.15361e-06
5.67374e-07
2.96467e-08
-2.48467e-06
6.65054e-07
-6.49186e-07
-1.32326e-06
6.72663e-07
-1.16151e-06
-2.50391e-07
5.32684e-07
-1.07445e-06
2.1573e-07
-2.32348e-07
-1.58247e-07
1.06473e-07
2.83286e-07
-6.86143e-07
1.18915e-07
7.16486e-07
-1.3548e-06
1.19509e-07
8.77885e-07
-1.98236e-06
1.40878e-07
8.56553e-07
-2.39679e-06
1.93458e-07
6.74239e-07
-2.42211e-06
2.7159e-07
3.21109e-07
-1.949e-06
3.47603e-07
-1.55666e-07
-1.07883e-06
3.71597e-07
-5.69097e-07
-2.34283e-07
2.96924e-07
-6.08791e-07
9.82273e-08
-1.16781e-07
-5.88282e-08
1.65301e-07
-3.02897e-07
3.62985e-07
-6.26825e-07
4.43437e-07
-9.46161e-07
4.60213e-07
-1.17218e-06
4.1948e-07
-1.2062e-06
3.05605e-07
-9.81515e-07
1.2292e-07
-5.40822e-07
-6.90957e-08
-1.03524e-07
-1.40374e-07
-5.29725e-09
-2.18805e-07
-2.78816e-07
6.62915e-07
-7.19404e-07
-3.72132e-07
1.23571e-06
-1.32299e-06
-3.87704e-07
1.43472e-06
-1.89833e-06
-3.96301e-07
1.43186e-06
-2.30063e-06
-4.27551e-07
1.24933e-06
-2.36877e-06
-4.83648e-07
8.57395e-07
-1.98699e-06
-5.37131e-07
2.78264e-07
-1.19621e-06
-5.29648e-07
-3.30224e-07
-3.31335e-07
-3.93447e-07
-6.11804e-07
-8.52428e-08
-2.51389e-07
-5.98654e-07
-5.0892e-07
1.11204e-06
-1.81481e-06
-7.38665e-07
2.29918e-06
-3.21089e-06
-7.84405e-07
2.67067e-06
-4.45888e-06
-8.00591e-07
2.50883e-06
-5.24735e-06
-8.46307e-07
1.88147e-06
-5.27918e-06
-9.22037e-07
7.91324e-07
-4.37165e-06
-9.85561e-07
-6.14758e-07
-2.65628e-06
-9.43238e-07
-1.87088e-06
-8.19961e-07
-7.12447e-07
-2.12611e-06
-2.32969e-07
-7.89016e-07
-8.89147e-07
-5.17818e-07
1.15554e-06
-2.62345e-06
-7.84905e-07
2.554e-06
-4.55324e-06
-8.41862e-07
2.94148e-06
-6.20733e-06
-8.57015e-07
2.58807e-06
-7.17016e-06
-8.93984e-07
1.57757e-06
-7.09627e-06
-9.53866e-07
-1.24109e-08
-5.77127e-06
-9.85846e-07
-1.9739e-06
-3.4406e-06
-9.24845e-07
-3.51058e-06
-1.03474e-06
-7.06426e-07
-3.48633e-06
-2.71856e-07
-1.2282e-06
-1.08123e-06
-3.18248e-07
1.07875e-06
-3.15908e-06
-4.92567e-07
2.50998e-06
-5.42709e-06
-5.30644e-07
2.85576e-06
-7.31495e-06
-5.38645e-07
2.34435e-06
-8.34879e-06
-5.56359e-07
1.06938e-06
-8.14994e-06
-5.84606e-07
-8.67295e-07
-6.52905e-06
-5.92994e-07
-3.09345e-06
-3.81387e-06
-5.50076e-07
-4.7099e-06
-1.09946e-06
-4.23438e-07
-4.4028e-06
-1.75476e-07
-1.50531e-06
-1.17654e-06
-2.96814e-13
1.01519e-06
-3.42579e-06
-2.35967e-13
2.43536e-06
-5.85789e-06
-2.18322e-13
2.74654e-06
-7.8509e-06
-2.24265e-13
2.14895e-06
-8.90513e-06
-1.09377e-13
7.4454e-07
-8.62803e-06
-5.46685e-14
-1.34556e-06
-6.8539e-06
-3.5552e-14
-3.6801e-06
-3.95622e-06
-1.01705e-14
-5.30215e-06
-1.11044e-06
7.43966e-15
-4.83592e-06
-4.1313e-14
-1.6311e-06
-1.17654e-06
3.18248e-07
1.01519e-06
-3.42579e-06
4.92567e-07
2.43536e-06
-5.85789e-06
5.30644e-07
2.74654e-06
-7.8509e-06
5.38645e-07
2.14895e-06
-8.90513e-06
5.56359e-07
7.4454e-07
-8.62803e-06
5.84606e-07
-1.34556e-06
-6.8539e-06
5.92994e-07
-3.6801e-06
-3.95622e-06
5.50076e-07
-5.30215e-06
-1.11044e-06
4.23438e-07
-4.83592e-06
1.75476e-07
-1.6311e-06
-1.08123e-06
5.17818e-07
1.07875e-06
-3.15908e-06
7.84904e-07
2.50998e-06
-5.42709e-06
8.41861e-07
2.85576e-06
-7.31495e-06
8.57015e-07
2.34435e-06
-8.34879e-06
8.93984e-07
1.06938e-06
-8.14994e-06
9.53866e-07
-8.67295e-07
-6.52905e-06
9.85846e-07
-3.09345e-06
-3.81387e-06
9.24845e-07
-4.7099e-06
-1.09946e-06
7.06426e-07
-4.4028e-06
2.71856e-07
-1.50531e-06
-8.89146e-07
5.08918e-07
1.15554e-06
-2.62345e-06
7.38663e-07
2.554e-06
-4.55324e-06
7.84404e-07
2.94148e-06
-6.20733e-06
8.00591e-07
2.58807e-06
-7.17016e-06
8.46307e-07
1.57757e-06
-7.09627e-06
9.22037e-07
-1.2411e-08
-5.77127e-06
9.85561e-07
-1.9739e-06
-3.4406e-06
9.43238e-07
-3.51058e-06
-1.03474e-06
7.12447e-07
-3.48633e-06
2.3297e-07
-1.2282e-06
-5.98653e-07
2.78813e-07
1.11204e-06
-1.81481e-06
3.72131e-07
2.29918e-06
-3.21089e-06
3.87704e-07
2.67067e-06
-4.45888e-06
3.96301e-07
2.50883e-06
-5.24735e-06
4.27551e-07
1.88147e-06
-5.27918e-06
4.83648e-07
7.91324e-07
-4.37165e-06
5.37131e-07
-6.14758e-07
-2.65628e-06
5.29648e-07
-1.87088e-06
-8.19961e-07
3.93447e-07
-2.12611e-06
8.5243e-08
-7.89016e-07
-2.18803e-07
6.62918e-07
-7.19402e-07
1.23572e-06
-1.32298e-06
1.43472e-06
-1.89833e-06
1.43186e-06
-2.30063e-06
1.24933e-06
-2.36877e-06
8.57395e-07
-1.98699e-06
2.78264e-07
-1.19621e-06
-3.30224e-07
-3.31335e-07
-6.11804e-07
-2.5139e-07
-3.31625e-07
-4.25966e-07
1.42051e-06
-1.00268e-06
-5.71757e-07
2.47853e-06
-1.78605e-06
-5.74305e-07
2.7924e-06
-2.54921e-06
-5.33531e-07
2.72856e-06
-3.139e-06
-5.02293e-07
2.34141e-06
-3.35182e-06
-5.04019e-07
1.57424e-06
-2.98467e-06
-5.27043e-07
4.38152e-07
-1.97559e-06
-5.22772e-07
-8.16533e-07
-6.72044e-07
-3.93894e-07
-1.52145e-06
-4.01291e-08
-8.83304e-07
-9.52915e-07
-7.40509e-07
2.3795e-06
-2.68926e-06
-1.06681e-06
4.53057e-06
-4.60868e-06
-1.07827e-06
5.09405e-06
-6.3265e-06
-9.9104e-07
4.68416e-06
-7.48927e-06
-9.07498e-07
3.44945e-06
-7.72247e-06
-8.65496e-07
1.386e-06
-6.70376e-06
-8.51091e-07
-1.30942e-06
-4.41081e-06
-8.0869e-07
-3.87792e-06
-1.58233e-06
-6.24074e-07
-4.72441e-06
-1.55181e-07
-2.2563e-06
-1.44244e-06
-7.31531e-07
2.58901e-06
-3.97842e-06
-1.09338e-06
5.11655e-06
-6.67909e-06
-1.10757e-06
5.67145e-06
-8.96468e-06
-1.00683e-06
4.88944e-06
-1.03637e-05
-8.98467e-07
2.96759e-06
-1.04457e-05
-8.19102e-07
2.31446e-08
-8.88275e-06
-7.626e-07
-3.62532e-06
-5.74006e-06
-7.03694e-07
-6.75826e-06
-2.02349e-06
-5.57987e-07
-7.26898e-06
-1.90545e-07
-3.21633e-06
-1.7698e-06
-4.41981e-07
2.559e-06
-4.83584e-06
-6.72552e-07
5.15519e-06
-8.02171e-06
-6.81179e-07
5.61524e-06
-1.0612e-05
-6.13706e-07
4.54153e-06
-1.20753e-05
-5.36876e-07
2.17107e-06
-1.19739e-05
-4.72759e-07
-1.31499e-06
-1.00255e-05
-4.24356e-07
-5.38009e-06
-6.37712e-06
-3.85415e-07
-8.6766e-06
-2.1966e-06
-3.12915e-07
-8.82839e-06
-1.23554e-07
-3.7689e-06
-1.93197e-06
-2.62269e-13
2.50518e-06
-5.25992e-06
-1.85752e-13
5.09076e-06
-8.67516e-06
-2.10374e-13
5.4806e-06
-1.13927e-05
-2.26752e-13
4.2528e-06
-1.28566e-05
-1.2625e-13
1.67158e-06
-1.26407e-05
-8.10186e-14
-2.03429e-06
-1.04975e-05
-6.29824e-14
-6.24765e-06
-6.62144e-06
-4.74875e-14
-9.56361e-06
-2.25106e-06
-4.85792e-14
-9.5192e-06
-7.50913e-14
-4.00571e-06
-1.93197e-06
4.41981e-07
2.50518e-06
-5.25992e-06
6.72552e-07
5.09076e-06
-8.67516e-06
6.81179e-07
5.4806e-06
-1.13927e-05
6.13706e-07
4.2528e-06
-1.28566e-05
5.36876e-07
1.67158e-06
-1.26407e-05
4.72759e-07
-2.03429e-06
-1.04975e-05
4.24356e-07
-6.24765e-06
-6.62144e-06
3.85415e-07
-9.56361e-06
-2.25106e-06
3.12915e-07
-9.5192e-06
1.23554e-07
-4.00571e-06
-1.7698e-06
7.3153e-07
2.559e-06
-4.83584e-06
1.09338e-06
5.15519e-06
-8.02171e-06
1.10757e-06
5.61524e-06
-1.0612e-05
1.00683e-06
4.54153e-06
-1.20753e-05
8.98467e-07
2.17107e-06
-1.19739e-05
8.19102e-07
-1.31499e-06
-1.00255e-05
7.626e-07
-5.38009e-06
-6.37712e-06
7.03693e-07
-8.6766e-06
-2.1966e-06
5.57987e-07
-8.82839e-06
1.90545e-07
-3.7689e-06
-1.44244e-06
7.40508e-07
2.58901e-06
-3.97842e-06
1.06681e-06
5.11655e-06
-6.67909e-06
1.07827e-06
5.67145e-06
-8.96468e-06
9.9104e-07
4.88944e-06
-1.03637e-05
9.07498e-07
2.96759e-06
-1.04457e-05
8.65496e-07
2.31446e-08
-8.88275e-06
8.51091e-07
-3.62532e-06
-5.74006e-06
8.0869e-07
-6.75826e-06
-2.02349e-06
6.24074e-07
-7.26898e-06
1.55181e-07
-3.21633e-06
-9.52915e-07
4.25965e-07
2.3795e-06
-2.68926e-06
5.71757e-07
4.53058e-06
-4.60868e-06
5.74305e-07
5.09405e-06
-6.3265e-06
5.33531e-07
4.68416e-06
-7.48927e-06
5.02293e-07
3.44945e-06
-7.72247e-06
5.04019e-07
1.386e-06
-6.70376e-06
5.27043e-07
-1.30942e-06
-4.41081e-06
5.22772e-07
-3.87792e-06
-1.58233e-06
3.93894e-07
-4.72441e-06
4.01291e-08
-2.2563e-06
-3.31624e-07
1.42051e-06
-1.00268e-06
2.47853e-06
-1.78605e-06
2.7924e-06
-2.54921e-06
2.72856e-06
-3.139e-06
2.34141e-06
-3.35182e-06
1.57424e-06
-2.98467e-06
4.38152e-07
-1.97559e-06
-8.16533e-07
-6.72044e-07
-1.52145e-06
-8.83304e-07
-4.14889e-07
-5.55139e-07
2.39053e-06
-1.20031e-06
-7.2391e-07
3.98785e-06
-2.10998e-06
-6.73317e-07
4.3754e-06
-3.0516e-06
-5.32059e-07
4.20223e-06
-3.90283e-06
-3.83603e-07
3.57625e-06
-4.42742e-06
-2.85927e-07
2.38475e-06
-4.28409e-06
-2.64794e-07
5.59616e-07
-3.17517e-06
-3.13812e-07
-1.61163e-06
-1.30763e-06
-2.97839e-07
-3.09115e-06
1.21735e-10
-2.19106e-06
-1.23093e-06
-9.40688e-07
3.99598e-06
-3.35902e-06
-1.30725e-06
7.242e-06
-5.67692e-06
-1.20634e-06
7.94498e-06
-7.82311e-06
-9.11799e-07
7.21008e-06
-9.4743e-06
-5.82746e-07
5.29978e-06
-1.02001e-05
-3.27988e-07
2.15391e-06
-9.45865e-06
-2.10612e-07
-2.1051e-06
-6.83727e-06
-2.58887e-07
-6.55422e-06
-2.84007e-06
-3.09076e-07
-8.71037e-06
-4.99508e-08
-5.0463e-06
-1.88159e-06
-9.12203e-07
4.44211e-06
-5.03231e-06
-1.30834e-06
8.26836e-06
-8.31466e-06
-1.19615e-06
8.94362e-06
-1.11393e-05
-8.67596e-07
7.6699e-06
-1.30743e-05
-4.8983e-07
4.80968e-06
-1.3634e-05
-1.74165e-07
4.29036e-07
-1.23079e-05
-1.6529e-08
-5.14559e-06
-8.71502e-06
-6.13362e-08
-1.05487e-05
-3.56658e-06
-1.74071e-07
-1.25524e-05
-6.73465e-08
-6.76551e-06
-2.31567e-06
-5.44528e-07
4.50699e-06
-6.13533e-06
-7.92685e-07
8.4592e-06
-9.99269e-06
-7.18958e-07
8.99541e-06
-1.31394e-05
-5.05649e-07
7.32628e-06
-1.50978e-05
-2.58093e-07
3.89772e-06
-1.54304e-05
-4.75717e-08
-1.10899e-06
-1.36786e-05
5.73285e-08
-7.20577e-06
-9.553e-06
2.68517e-08
-1.28903e-05
-3.85987e-06
-6.31352e-08
-1.46325e-05
-4.25808e-08
-7.65354e-06
-2.52859e-06
-2.27019e-13
4.48924e-06
-6.6726e-06
-2.03218e-13
8.44208e-06
-1.07901e-05
-2.72729e-13
8.87911e-06
-1.40528e-05
-2.80272e-13
7.00986e-06
-1.59738e-05
-1.79443e-13
3.33453e-06
-1.6157e-05
-9.865e-14
-1.89868e-06
-1.4201e-05
-6.16433e-14
-8.14632e-06
-9.85728e-06
-3.86482e-14
-1.38805e-05
-3.96039e-06
-5.56308e-14
-1.54792e-05
-6.32335e-14
-8.00868e-06
-2.52859e-06
5.44528e-07
4.48924e-06
-6.6726e-06
7.92685e-07
8.44208e-06
-1.07901e-05
7.18957e-07
8.87911e-06
-1.40528e-05
5.05648e-07
7.00986e-06
-1.59738e-05
2.58093e-07
3.33453e-06
-1.6157e-05
4.75717e-08
-1.89868e-06
-1.4201e-05
-5.73285e-08
-8.14632e-06
-9.85728e-06
-2.68517e-08
-1.38805e-05
-3.96039e-06
6.31352e-08
-1.54792e-05
4.25807e-08
-8.00868e-06
-2.31567e-06
9.12202e-07
4.50699e-06
-6.13533e-06
1.30834e-06
8.4592e-06
-9.99269e-06
1.19615e-06
8.99541e-06
-1.31394e-05
8.67596e-07
7.32628e-06
-1.50978e-05
4.8983e-07
3.89772e-06
-1.54304e-05
1.74165e-07
-1.10899e-06
-1.36786e-05
1.6529e-08
-7.20577e-06
-9.553e-06
6.13362e-08
-1.28903e-05
-3.85987e-06
1.74071e-07
-1.46325e-05
6.73464e-08
-7.65354e-06
-1.88159e-06
9.40687e-07
4.44211e-06
-5.03231e-06
1.30725e-06
8.26836e-06
-8.31466e-06
1.20633e-06
8.94362e-06
-1.11393e-05
9.11799e-07
7.6699e-06
-1.30743e-05
5.82746e-07
4.80968e-06
-1.3634e-05
3.27988e-07
4.29037e-07
-1.23079e-05
2.10612e-07
-5.14559e-06
-8.71502e-06
2.58887e-07
-1.05487e-05
-3.56658e-06
3.09077e-07
-1.25524e-05
4.99508e-08
-6.76551e-06
-1.23093e-06
5.55139e-07
3.99598e-06
-3.35902e-06
7.2391e-07
7.242e-06
-5.67692e-06
6.73316e-07
7.94498e-06
-7.82311e-06
5.32059e-07
7.21008e-06
-9.4743e-06
3.83603e-07
5.29978e-06
-1.02001e-05
2.85927e-07
2.15391e-06
-9.45865e-06
2.64793e-07
-2.1051e-06
-6.83727e-06
3.13812e-07
-6.55422e-06
-2.84007e-06
2.97839e-07
-8.71037e-06
-1.21838e-10
-5.0463e-06
-4.14889e-07
2.39054e-06
-1.20031e-06
3.98785e-06
-2.10998e-06
4.3754e-06
-3.0516e-06
4.20223e-06
-3.90283e-06
3.57625e-06
-4.42742e-06
2.38475e-06
-4.28409e-06
5.59616e-07
-3.17517e-06
-1.61163e-06
-1.30763e-06
-3.09115e-06
-2.19106e-06
-5.07052e-07
-6.55541e-07
3.55313e-06
-1.34987e-06
-8.1188e-07
5.64255e-06
-2.30512e-06
-6.56226e-07
5.98687e-06
-3.37915e-06
-3.45794e-07
5.62205e-06
-4.54232e-06
1.51603e-08
4.72425e-06
-5.56131e-06
2.93447e-07
3.11029e-06
-5.92873e-06
3.9605e-07
5.30989e-07
-4.96211e-06
2.44141e-07
-2.8224e-06
-2.45919e-06
3.1148e-09
-5.59718e-06
9.57725e-09
-4.65983e-06
-1.46901e-06
-1.08771e-06
5.89716e-06
-3.83694e-06
-1.43082e-06
1.02289e-05
-6.36624e-06
-1.12603e-06
1.09441e-05
-8.81934e-06
-5.01485e-07
9.81887e-06
-1.099e-05
2.09584e-07
7.27603e-06
-1.24622e-05
7.90893e-07
3.12867e-06
-1.24563e-05
1.03344e-06
-2.74838e-06
-9.98578e-06
7.79622e-07
-9.56024e-06
-4.84718e-06
2.43203e-07
-1.40891e-05
1.22815e-08
-9.89618e-06
-2.21803e-06
-1.03777e-06
6.61021e-06
-5.73925e-06
-1.40391e-06
1.17627e-05
-9.31829e-06
-1.07588e-06
1.24725e-05
-1.24693e-05
-4.03809e-07
1.07233e-05
-1.48972e-05
3.55225e-07
7.09188e-06
-1.61666e-05
9.68305e-07
1.52101e-06
-1.55756e-05
1.21304e-06
-5.91615e-06
-1.21758e-05
9.37343e-07
-1.41062e-05
-5.83776e-06
3.57554e-07
-1.90048e-05
1.89516e-08
-1.26099e-05
-2.70649e-06
-6.12695e-07
6.78841e-06
-6.96015e-06
-8.39129e-07
1.21481e-05
-1.11249e-05
-6.30024e-07
1.27143e-05
-1.45415e-05
-2.04744e-07
1.05438e-05
-1.69025e-05
2.71422e-07
6.34253e-06
-1.78469e-05
6.50844e-07
1.52927e-07
-1.68383e-05
7.847e-07
-7.78611e-06
-1.30046e-05
6.00895e-07
-1.63875e-05
-6.20825e-06
2.39418e-07
-2.13107e-05
1.52553e-08
-1.38581e-05
-2.94066e-06
-2.04869e-13
6.81721e-06
-7.53856e-06
-2.10024e-13
1.22009e-05
-1.19504e-05
-2.61574e-13
1.26609e-05
-1.54325e-05
-2.21501e-13
1.02873e-05
-1.76898e-05
-1.09642e-13
5.86324e-06
-1.84431e-05
-3.28122e-14
-4.94511e-07
-1.72459e-05
7.13793e-15
-8.55881e-06
-1.32705e-05
2.27549e-14
-1.7255e-05
-6.33629e-06
-1.16145e-14
-2.2174e-05
-9.04807e-15
-1.43297e-05
-2.94066e-06
6.12695e-07
6.81721e-06
-7.53856e-06
8.39129e-07
1.22009e-05
-1.19504e-05
6.30024e-07
1.26609e-05
-1.54325e-05
2.04744e-07
1.02873e-05
-1.76898e-05
-2.71422e-07
5.86324e-06
-1.84431e-05
-6.50844e-07
-4.94511e-07
-1.72459e-05
-7.847e-07
-8.55881e-06
-1.32705e-05
-6.00895e-07
-1.7255e-05
-6.33629e-06
-2.39418e-07
-2.2174e-05
-1.52553e-08
-1.43297e-05
-2.70649e-06
1.03777e-06
6.78841e-06
-6.96015e-06
1.40391e-06
1.21481e-05
-1.11249e-05
1.07588e-06
1.27143e-05
-1.45415e-05
4.03809e-07
1.05438e-05
-1.69025e-05
-3.55225e-07
6.34253e-06
-1.78469e-05
-9.68305e-07
1.52927e-07
-1.68383e-05
-1.21304e-06
-7.78611e-06
-1.30046e-05
-9.37343e-07
-1.63875e-05
-6.20825e-06
-3.57555e-07
-2.13107e-05
-1.89517e-08
-1.38581e-05
-2.21803e-06
1.08771e-06
6.61021e-06
-5.73925e-06
1.43082e-06
1.17627e-05
-9.31829e-06
1.12603e-06
1.24725e-05
-1.24693e-05
5.01485e-07
1.07233e-05
-1.48972e-05
-2.09584e-07
7.09188e-06
-1.61666e-05
-7.90894e-07
1.52101e-06
-1.55756e-05
-1.03344e-06
-5.91615e-06
-1.21758e-05
-7.79622e-07
-1.41062e-05
-5.83776e-06
-2.43203e-07
-1.90048e-05
-1.22815e-08
-1.26099e-05
-1.46901e-06
6.55541e-07
5.89716e-06
-3.83694e-06
8.1188e-07
1.02289e-05
-6.36624e-06
6.56226e-07
1.09441e-05
-8.81934e-06
3.45794e-07
9.81888e-06
-1.099e-05
-1.51603e-08
7.27603e-06
-1.24622e-05
-2.93447e-07
3.12867e-06
-1.24563e-05
-3.9605e-07
-2.74838e-06
-9.98578e-06
-2.44141e-07
-9.56024e-06
-4.84718e-06
-3.11486e-09
-1.40891e-05
-9.57736e-09
-9.89618e-06
-5.07052e-07
3.55313e-06
-1.34987e-06
5.64255e-06
-2.30512e-06
5.98687e-06
-3.37915e-06
5.62205e-06
-4.54232e-06
4.72425e-06
-5.56131e-06
3.11029e-06
-5.92873e-06
5.30989e-07
-4.96211e-06
-2.8224e-06
-2.45919e-06
-5.59718e-06
-4.65983e-06
-6.98398e-07
-7.29787e-07
4.98131e-06
-1.51805e-06
-8.3038e-07
7.29259e-06
-2.35185e-06
-5.11931e-07
7.3326e-06
-3.40289e-06
4.80983e-08
6.62499e-06
-4.8016e-06
6.92085e-07
5.43088e-06
-6.41616e-06
1.26037e-06
3.46448e-06
-7.61559e-06
1.52407e-06
2.06351e-07
-7.23963e-06
1.22638e-06
-4.42474e-06
-4.28501e-06
4.93166e-07
-9.04497e-06
-6.43987e-08
-8.88044e-06
-1.75203e-06
-1.17939e-06
8.09879e-06
-4.14035e-06
-1.43483e-06
1.32216e-05
-6.51362e-06
-8.44027e-07
1.36494e-05
-8.88972e-06
2.07951e-07
1.20351e-05
-1.13084e-05
1.40049e-06
8.98629e-06
-1.34854e-05
2.39647e-06
4.16956e-06
-1.45666e-05
2.79402e-06
-2.93713e-06
-1.3001e-05
2.23576e-06
-1.21352e-05
-7.41834e-06
9.4895e-07
-2.01275e-05
-5.92472e-08
-1.73197e-05
-2.50667e-06
-1.10398e-06
9.04147e-06
-6.04416e-06
-1.38279e-06
1.52481e-05
-9.40346e-06
-7.73352e-07
1.57611e-05
-1.23462e-05
3.07183e-07
1.35668e-05
-1.48338e-05
1.49885e-06
9.48119e-06
-1.66323e-05
2.43635e-06
3.27955e-06
-1.70766e-05
2.72078e-06
-5.39856e-06
-1.47793e-05
2.0965e-06
-1.62643e-05
-8.35906e-06
8.6956e-07
-2.53456e-05
-3.05168e-08
-2.09977e-05
-2.97503e-06
-6.43696e-07
9.30315e-06
-7.20788e-06
-8.16017e-07
1.58141e-05
-1.1066e-05
-4.38428e-07
1.62375e-05
-1.41338e-05
2.25547e-07
1.36932e-05
-1.63814e-05
9.40261e-07
9.14868e-06
-1.77302e-05
1.47135e-06
2.46675e-06
-1.77489e-05
1.59538e-06
-6.64201e-06
-1.52133e-05
1.18923e-06
-1.80159e-05
-8.65088e-06
4.79086e-07
-2.74826e-05
-9.37185e-09
-2.25301e-05
-3.1909e-06
-1.72081e-13
9.36441e-06
-7.73602e-06
-1.89987e-13
1.593e-05
-1.1783e-05
-2.38484e-13
1.62695e-05
-1.4834e-05
-1.76016e-13
1.35638e-05
-1.68965e-05
-9.55569e-14
8.86599e-06
-1.79964e-05
-1.56959e-14
2.07671e-06
-1.78595e-05
4.48868e-14
-7.10025e-06
-1.53041e-05
5.06259e-14
-1.86212e-05
-8.75695e-06
3.61161e-14
-2.82421e-05
3.72328e-14
-2.3096e-05
-3.1909e-06
6.43695e-07
9.36441e-06
-7.73602e-06
8.16016e-07
1.593e-05
-1.1783e-05
4.38427e-07
1.62695e-05
-1.4834e-05
-2.25547e-07
1.35638e-05
-1.68965e-05
-9.40261e-07
8.86599e-06
-1.79964e-05
-1.47135e-06
2.07671e-06
-1.78595e-05
-1.59538e-06
-7.10025e-06
-1.53041e-05
-1.18923e-06
-1.86212e-05
-8.75695e-06
-4.79086e-07
-2.82421e-05
9.37186e-09
-2.3096e-05
-2.97503e-06
1.10398e-06
9.30315e-06
-7.20788e-06
1.38279e-06
1.58141e-05
-1.1066e-05
7.73352e-07
1.62375e-05
-1.41338e-05
-3.07183e-07
1.36932e-05
-1.63814e-05
-1.49885e-06
9.14868e-06
-1.77302e-05
-2.43635e-06
2.46675e-06
-1.77489e-05
-2.72078e-06
-6.64201e-06
-1.52133e-05
-2.0965e-06
-1.80159e-05
-8.65088e-06
-8.69561e-07
-2.74826e-05
3.05168e-08
-2.25301e-05
-2.50667e-06
1.17939e-06
9.04147e-06
-6.04416e-06
1.43483e-06
1.52481e-05
-9.40346e-06
8.44027e-07
1.57611e-05
-1.23462e-05
-2.07951e-07
1.35668e-05
-1.48338e-05
-1.40049e-06
9.48119e-06
-1.66323e-05
-2.39647e-06
3.27955e-06
-1.70766e-05
-2.79402e-06
-5.39856e-06
-1.47793e-05
-2.23576e-06
-1.62643e-05
-8.35906e-06
-9.4895e-07
-2.53456e-05
5.92472e-08
-2.09977e-05
-1.75203e-06
7.29787e-07
8.09879e-06
-4.14035e-06
8.3038e-07
1.32216e-05
-6.51362e-06
5.11931e-07
1.36494e-05
-8.88972e-06
-4.80982e-08
1.20351e-05
-1.13084e-05
-6.92085e-07
8.98629e-06
-1.34854e-05
-1.26037e-06
4.16956e-06
-1.45666e-05
-1.52407e-06
-2.93713e-06
-1.3001e-05
-1.22638e-06
-1.21352e-05
-7.41834e-06
-4.93166e-07
-2.01275e-05
6.43986e-08
-1.73197e-05
-6.98398e-07
4.98131e-06
-1.51805e-06
7.29259e-06
-2.35185e-06
7.33261e-06
-3.40289e-06
6.62499e-06
-4.8016e-06
5.43088e-06
-6.41616e-06
3.46448e-06
-7.61559e-06
2.06351e-07
-7.23963e-06
-4.42474e-06
-4.28501e-06
-9.04497e-06
-8.88044e-06
-1.23058e-06
-8.29769e-07
7.04166e-06
-1.84126e-06
-8.40912e-07
8.74418e-06
-2.19715e-06
-3.19009e-07
8.0075e-06
-2.83354e-06
5.22851e-07
6.73853e-06
-4.13606e-06
1.50357e-06
5.22982e-06
-6.17924e-06
2.43792e-06
3.06974e-06
-8.42225e-06
2.97441e-06
-5.25054e-07
-9.22806e-06
2.58745e-06
-6.20638e-06
-6.50542e-06
1.20261e-06
-1.29702e-05
-2.94187e-07
-1.50917e-05
-2.38288e-06
-1.27081e-06
1.09227e-05
-4.39586e-06
-1.40939e-06
1.58031e-05
-5.91071e-06
-5.09202e-07
1.53545e-05
-7.37938e-06
9.5588e-07
1.30708e-05
-9.20842e-06
2.60129e-06
9.71761e-06
-1.14491e-05
4.01086e-06
4.83725e-06
-1.35087e-05
4.61241e-06
-2.51551e-06
-1.36517e-05
3.76002e-06
-1.31648e-05
-9.28577e-06
1.57625e-06
-2.48671e-05
-4.18294e-07
-2.64813e-05
-3.02639e-06
-1.15144e-06
1.19485e-05
-6.03688e-06
-1.32428e-06
1.81735e-05
-8.30269e-06
-4.42371e-07
1.79601e-05
-1.00235e-05
9.82608e-07
1.52609e-05
-1.15409e-05
2.51856e-06
1.10813e-05
-1.30281e-05
3.71469e-06
5.06294e-06
-1.42323e-05
4.05024e-06
-3.63221e-06
-1.3872e-05
3.09027e-06
-1.59548e-05
-9.46667e-06
1.16114e-06
-2.93358e-05
-3.40135e-07
-3.05426e-05
-3.39056e-06
-6.58635e-07
1.22009e-05
-6.96072e-06
-7.69085e-07
1.88291e-05
-9.56074e-06
-2.39459e-07
1.86346e-05
-1.1225e-05
6.0895e-07
1.57311e-05
-1.23158e-05
1.49425e-06
1.12638e-05
-1.31985e-05
2.13608e-06
4.92804e-06
-1.39362e-05
2.24454e-06
-4.09859e-06
-1.35345e-05
1.63302e-06
-1.69603e-05
-9.42452e-06
5.68298e-07
-3.09998e-05
-1.73671e-07
-3.21211e-05
-3.54784e-06
-9.66914e-14
1.22536e-05
-7.35277e-06
-1.25682e-13
1.89658e-05
-1.00575e-05
-1.66261e-13
1.87348e-05
-1.16261e-05
-1.26366e-13
1.57414e-05
-1.24653e-05
-6.25445e-14
1.11994e-05
-1.30725e-05
2.54243e-14
4.81995e-06
-1.36746e-05
7.8695e-14
-4.25354e-06
-1.33641e-05
9.22661e-14
-1.72987e-05
-9.437e-06
8.33623e-14
-3.1601e-05
7.06065e-14
-3.27067e-05
-3.54784e-06
6.58635e-07
1.22536e-05
-7.35277e-06
7.69084e-07
1.89658e-05
-1.00575e-05
2.39459e-07
1.87348e-05
-1.16261e-05
-6.0895e-07
1.57414e-05
-1.24653e-05
-1.49425e-06
1.11994e-05
-1.30725e-05
-2.13608e-06
4.81995e-06
-1.36746e-05
-2.24454e-06
-4.25354e-06
-1.33641e-05
-1.63302e-06
-1.72987e-05
-9.437e-06
-5.68298e-07
-3.1601e-05
1.73671e-07
-3.27067e-05
-3.39056e-06
1.15144e-06
1.22009e-05
-6.96072e-06
1.32428e-06
1.88291e-05
-9.56074e-06
4.4237e-07
1.86346e-05
-1.1225e-05
-9.82608e-07
1.57311e-05
-1.23158e-05
-2.51856e-06
1.12638e-05
-1.31985e-05
-3.71469e-06
4.92804e-06
-1.39362e-05
-4.05024e-06
-4.09859e-06
-1.35345e-05
-3.09027e-06
-1.69603e-05
-9.42452e-06
-1.16114e-06
-3.09998e-05
3.40135e-07
-3.21211e-05
-3.02639e-06
1.27081e-06
1.19485e-05
-6.03688e-06
1.40939e-06
1.81735e-05
-8.30269e-06
5.09202e-07
1.79601e-05
-1.00235e-05
-9.5588e-07
1.52609e-05
-1.15409e-05
-2.60129e-06
1.10813e-05
-1.30281e-05
-4.01086e-06
5.06294e-06
-1.42323e-05
-4.61241e-06
-3.63221e-06
-1.3872e-05
-3.76002e-06
-1.59548e-05
-9.46667e-06
-1.57625e-06
-2.93358e-05
4.18294e-07
-3.05426e-05
-2.38288e-06
8.29769e-07
1.09227e-05
-4.39586e-06
8.40912e-07
1.58031e-05
-5.91071e-06
3.19009e-07
1.53545e-05
-7.37938e-06
-5.22851e-07
1.30708e-05
-9.20842e-06
-1.50357e-06
9.71761e-06
-1.14491e-05
-2.43792e-06
4.83725e-06
-1.35087e-05
-2.97441e-06
-2.51551e-06
-1.36517e-05
-2.58745e-06
-1.31648e-05
-9.28577e-06
-1.20261e-06
-2.48671e-05
2.94186e-07
-2.64813e-05
-1.23058e-06
7.04166e-06
-1.84126e-06
8.74418e-06
-2.19715e-06
8.0075e-06
-2.83354e-06
6.73853e-06
-4.13606e-06
5.22982e-06
-6.17924e-06
3.06974e-06
-8.42225e-06
-5.25054e-07
-9.22806e-06
-6.20638e-06
-6.50542e-06
-1.29702e-05
-1.50917e-05
-2.47608e-06
-1.08498e-06
1.06027e-05
-2.23961e-06
-1.0766e-06
9.58431e-06
-1.29433e-06
-3.91718e-07
7.45393e-06
-7.39981e-07
6.71791e-07
5.51239e-06
-1.22403e-06
1.90318e-06
3.81069e-06
-3.07894e-06
3.13972e-06
1.78493e-06
-6.14586e-06
4.02762e-06
-1.48576e-06
-8.6802e-06
3.68711e-06
-7.35915e-06
-7.66938e-06
1.62721e-06
-1.56082e-05
-1.00963e-06
-2.17514e-05
-4.02776e-06
-1.53004e-06
1.53955e-05
-4.68816e-06
-1.65984e-06
1.70467e-05
-3.89537e-06
-5.95535e-07
1.47655e-05
-2.93417e-06
1.05924e-06
1.17221e-05
-2.66581e-06
2.91773e-06
8.43469e-06
-3.5805e-06
4.58625e-06
4.30542e-06
-5.73967e-06
5.50047e-06
-1.82918e-06
-8.05095e-06
4.60924e-06
-1.17756e-05
-7.44356e-06
1.63377e-06
-2.5481e-05
-1.37474e-06
-3.35598e-05
-4.64087e-06
-1.30481e-06
1.63641e-05
-6.0086e-06
-1.47242e-06
1.93538e-05
-5.55229e-06
-4.91827e-07
1.74001e-05
-4.37789e-06
1.0142e-06
1.41315e-05
-3.311e-06
2.62531e-06
1.03068e-05
-2.99518e-06
3.94198e-06
5.39138e-06
-3.88239e-06
4.46889e-06
-1.71342e-06
-5.77679e-06
3.46883e-06
-1.292e-05
-6.00672e-06
1.03245e-06
-2.85046e-05
-1.01349e-06
-3.69105e-05
-4.90388e-06
-7.19716e-07
1.65197e-05
-6.63311e-06
-8.26128e-07
1.99121e-05
-6.31792e-06
-2.57014e-07
1.80846e-05
-4.95177e-06
6.06019e-07
1.47732e-05
-3.37785e-06
1.49758e-06
1.08176e-05
-2.39254e-06
2.17725e-06
5.70747e-06
-2.73261e-06
2.37796e-06
-1.66759e-06
-4.66549e-06
1.75513e-06
-1.33137e-05
-5.50193e-06
4.70646e-07
-2.96016e-05
-4.84676e-07
-3.81519e-05
-4.99673e-06
-4.99436e-14
1.65306e-05
-6.85818e-06
-8.29431e-14
2.00011e-05
-6.5689e-06
-1.05882e-13
1.81885e-05
-5.08355e-06
-9.32346e-14
1.4862e-05
-3.27771e-06
-5.43886e-14
1.08911e-05
-2.04526e-06
4.16363e-14
5.76475e-06
-2.25355e-06
1.36494e-13
-1.66729e-06
-4.32178e-06
1.35738e-13
-1.34753e-05
-5.42704e-06
1.1025e-13
-3.00251e-05
5.84854e-14
-3.86184e-05
-4.99673e-06
7.19716e-07
1.65306e-05
-6.85818e-06
8.26127e-07
2.00011e-05
-6.5689e-06
2.57014e-07
1.81885e-05
-5.08355e-06
-6.06019e-07
1.4862e-05
-3.27771e-06
-1.49758e-06
1.08911e-05
-2.04526e-06
-2.17725e-06
5.76475e-06
-2.25355e-06
-2.37796e-06
-1.66729e-06
-4.32178e-06
-1.75513e-06
-1.34753e-05
-5.42704e-06
-4.70646e-07
-3.00251e-05
4.84676e-07
-3.86184e-05
-4.90388e-06
1.30481e-06
1.65197e-05
-6.63311e-06
1.47242e-06
1.99121e-05
-6.31792e-06
4.91827e-07
1.80846e-05
-4.95177e-06
-1.0142e-06
1.47732e-05
-3.37785e-06
-2.62531e-06
1.08176e-05
-2.39254e-06
-3.94198e-06
5.70747e-06
-2.73261e-06
-4.46889e-06
-1.66759e-06
-4.66549e-06
-3.46883e-06
-1.33137e-05
-5.50193e-06
-1.03245e-06
-2.96016e-05
1.01349e-06
-3.81519e-05
-4.64087e-06
1.53004e-06
1.63641e-05
-6.0086e-06
1.65984e-06
1.93538e-05
-5.55229e-06
5.95535e-07
1.74001e-05
-4.37789e-06
-1.05924e-06
1.41315e-05
-3.311e-06
-2.91773e-06
1.03068e-05
-2.99518e-06
-4.58625e-06
5.39138e-06
-3.88239e-06
-5.50047e-06
-1.71342e-06
-5.77679e-06
-4.60924e-06
-1.292e-05
-6.00672e-06
-1.63377e-06
-2.85046e-05
1.37474e-06
-3.69105e-05
-4.02776e-06
1.08498e-06
1.53955e-05
-4.68816e-06
1.0766e-06
1.70467e-05
-3.89537e-06
3.91718e-07
1.47655e-05
-2.93417e-06
-6.71791e-07
1.17221e-05
-2.66581e-06
-1.90318e-06
8.43469e-06
-3.58049e-06
-3.13972e-06
4.30542e-06
-5.73967e-06
-4.02762e-06
-1.82918e-06
-8.05095e-06
-3.68711e-06
-1.17756e-05
-7.44356e-06
-1.62721e-06
-2.5481e-05
1.00963e-06
-3.35598e-05
-2.47608e-06
1.06027e-05
-2.23961e-06
9.58431e-06
-1.29433e-06
7.45393e-06
-7.39981e-07
5.51239e-06
-1.22403e-06
3.81069e-06
-3.07894e-06
1.78493e-06
-6.14586e-06
-1.48576e-06
-8.6802e-06
-7.35915e-06
-7.66938e-06
-1.56082e-05
-2.17514e-05
-2.67177e-06
-1.85785e-06
1.51323e-05
5.09854e-07
-1.98591e-06
8.3886e-06
4.54513e-06
-1.19787e-06
4.61653e-06
7.40735e-06
-1.4418e-07
2.79435e-06
8.5964e-06
1.09616e-06
1.52548e-06
7.6701e-06
2.38235e-06
3.28875e-07
4.35997e-06
3.55237e-06
-1.728e-06
-6.13937e-07
3.4547e-06
-5.83995e-06
-3.46972e-06
9.08853e-07
-1.36613e-05
-2.71782e-06
-2.25033e-05
-4.77282e-06
-2.23181e-06
2.05423e-05
-7.80468e-07
-2.67506e-06
1.37435e-05
5.13731e-06
-1.76734e-06
9.4172e-06
1.02842e-05
-2.96741e-07
6.72781e-06
1.39622e-05
1.37179e-06
4.48107e-06
1.54849e-05
3.00963e-06
2.15543e-06
1.40417e-05
4.27563e-06
-1.10924e-06
9.31715e-06
3.84514e-06
-7.44151e-06
3.0927e-06
7.0068e-07
-1.90484e-05
-2.75811e-06
-3.04268e-05
-5.53663e-06
-1.70857e-06
2.13775e-05
-1.74105e-06
-2.16888e-06
1.5052e-05
4.33265e-06
-1.44191e-06
1.1001e-05
1.01589e-05
-2.39072e-07
8.24752e-06
1.49741e-05
1.10703e-06
5.75647e-06
1.79782e-05
2.35461e-06
3.04223e-06
1.79212e-05
3.20139e-06
-5.82142e-07
1.37091e-05
2.7547e-06
-7.61751e-06
5.7136e-06
4.39416e-07
-2.02478e-05
-1.72675e-06
-3.22283e-05
-5.73174e-06
-8.874e-07
2.14303e-05
-2.07721e-06
-1.15368e-06
1.52423e-05
3.99632e-06
-7.56049e-07
1.13252e-05
1.00326e-05
-1.09838e-07
8.60764e-06
1.52622e-05
6.02847e-07
6.09222e-06