/*--------------------------------*- C++ -*----------------------------------*\
  =========                 |
  \\      /  F ield         | OpenFOAM: The Open Source CFD Toolbox
   \\    /   O peration     | Website:  https://openfoam.org
    \\  /    A nd           | Version:  9
     \\/     M anipulation  |
\*---------------------------------------------------------------------------*/
FoamFile
{
    format      ascii;
    class       volVectorField;
    location    "0.69";
    object      U;
}
// * * * * * * * * * * * * * * * * * * * * * * * * * * * * * * * * * * * * * //

dimensions      [0 1 -1 0 0 0 0];

internalField   nonuniform List<vector> 
1000
(
(1.94916e-05 -0.000500496 0.000342692)
(-0.00142621 -0.000463555 0.00107261)
(-0.00459971 -0.000420829 0.00142384)
(-0.00797778 -0.000530862 0.00157375)
(-0.0108686 -0.000837153 0.00153786)
(-0.0123227 -0.00130088 0.0012258)
(-0.0114078 -0.00176127 0.000624233)
(-0.00786535 -0.00193048 -4.01287e-05)
(-0.00263179 -0.00153872 -0.000236197)
(0.000105468 -0.00046042 0.000363259)
(-0.000165229 -0.00177014 0.000596411)
(-0.00345613 -0.00217698 0.00228951)
(-0.0101378 -0.00226073 0.0030338)
(-0.0169946 -0.00259872 0.00312606)
(-0.022551 -0.00335989 0.00263962)
(-0.0250404 -0.00444207 0.00147636)
(-0.0228372 -0.00543061 -0.000230491)
(-0.0156294 -0.00562963 -0.00175475)
(-0.00545421 -0.00446059 -0.00177939)
(-1.76815e-05 -0.00164826 0.000217555)
(-0.000359738 -0.00264777 0.000293086)
(-0.00497897 -0.00371435 0.00234243)
(-0.0139874 -0.0040361 0.00322589)
(-0.0230161 -0.00449323 0.00317746)
(-0.0300722 -0.0053531 0.00226656)
(-0.0328895 -0.00649586 0.000418963)
(-0.0294656 -0.0073893 -0.0020768)
(-0.0196137 -0.00733488 -0.00399145)
(-0.0062928 -0.00579168 -0.00346798)
(0.000333164 -0.00246057 -6.21308e-05)
(-0.000497998 -0.00224262 -0.000112601)
(-0.00601053 -0.00328819 0.00199533)
(-0.0165445 -0.00361969 0.00289943)
(-0.0269459 -0.00398885 0.00272483)
(-0.0348721 -0.00462297 0.00151076)
(-0.0376848 -0.00542662 -0.000792654)
(-0.0332099 -0.00597141 -0.00375452)
(-0.0215219 -0.0058006 -0.00578494)
(-0.00624807 -0.00457672 -0.00470512)
(0.000802571 -0.0020601 -0.000255495)
(-0.000571973 -0.000865884 -0.000365063)
(-0.00653901 -0.00129106 0.00172773)
(-0.0178348 -0.00142769 0.00262432)
(-0.0289033 -0.00156573 0.00237874)
(-0.037218 -0.00179148 0.00100756)
(-0.0399651 -0.00206813 -0.00152509)
(-0.0348995 -0.00224803 -0.00468292)
(-0.0222623 -0.0021641 -0.00671983)
(-0.0060591 -0.00170842 -0.00531566)
(0.00109933 -0.000788504 -0.000343024)
(-0.000571973 0.000865875 -0.000365063)
(-0.00653901 0.00129105 0.00172774)
(-0.0178348 0.00142768 0.00262432)
(-0.0289033 0.00156572 0.00237874)
(-0.037218 0.00179147 0.00100756)
(-0.0399651 0.00206813 -0.00152509)
(-0.0348995 0.00224803 -0.00468292)
(-0.0222623 0.0021641 -0.00671983)
(-0.0060591 0.00170842 -0.00531566)
(0.00109933 0.000788503 -0.000343024)
(-0.000497997 0.00224261 -0.000112601)
(-0.00601053 0.00328818 0.00199533)
(-0.0165444 0.00361969 0.00289944)
(-0.0269459 0.00398884 0.00272483)
(-0.0348721 0.00462297 0.00151076)
(-0.0376848 0.00542662 -0.000792654)
(-0.0332099 0.00597141 -0.00375452)
(-0.0215219 0.0058006 -0.00578494)
(-0.00624807 0.00457672 -0.00470512)
(0.000802571 0.0020601 -0.000255495)
(-0.000359739 0.00264775 0.000293086)
(-0.00497897 0.00371433 0.00234243)
(-0.0139874 0.0040361 0.00322589)
(-0.0230161 0.00449322 0.00317746)
(-0.0300722 0.00535309 0.00226656)
(-0.0328895 0.00649586 0.000418963)
(-0.0294656 0.0073893 -0.0020768)
(-0.0196137 0.00733488 -0.00399146)
(-0.0062928 0.00579168 -0.00346798)
(0.000333164 0.00246057 -6.21314e-05)
(-0.000165229 0.00177011 0.000596413)
(-0.00345612 0.00217697 0.00228951)
(-0.0101378 0.00226073 0.0030338)
(-0.0169946 0.00259872 0.00312606)
(-0.022551 0.00335989 0.00263962)
(-0.0250404 0.00444207 0.00147636)
(-0.0228372 0.00543061 -0.000230492)
(-0.0156294 0.00562963 -0.00175475)
(-0.00545421 0.00446059 -0.00177939)
(-1.76815e-05 0.00164826 0.000217555)
(1.95006e-05 0.00050048 0.000342701)
(-0.00142618 0.000463548 0.00107261)
(-0.00459969 0.000420826 0.00142384)
(-0.00797777 0.000530861 0.00157375)
(-0.0108686 0.000837154 0.00153786)
(-0.0123227 0.00130088 0.0012258)
(-0.0114078 0.00176127 0.000624232)
(-0.00786535 0.00193048 -4.01291e-05)
(-0.00263179 0.00153872 -0.000236197)
(0.000105469 0.00046042 0.000363258)
(-0.000632484 -0.00142973 0.00343469)
(-0.00411888 -0.0018342 0.0068842)
(-0.0101599 -0.00187462 0.00822512)
(-0.0163652 -0.00191393 0.00841015)
(-0.0215646 -0.00209726 0.00754264)
(-0.0242067 -0.00244258 0.00538803)
(-0.0227483 -0.00279807 0.00205746)
(-0.0165368 -0.00281622 -0.00139704)
(-0.00680108 -0.00206868 -0.00280847)
(-0.000661881 -0.000311216 -0.000542932)
(-0.00195971 -0.00422025 0.00573358)
(-0.0108079 -0.00592812 0.0130686)
(-0.0251323 -0.00623451 0.01568)
(-0.0391406 -0.00637499 0.0151094)
(-0.0500052 -0.00682483 0.0117143)
(-0.0546468 -0.00760031 0.00539664)
(-0.0503766 -0.00830686 -0.00292335)
(-0.0363996 -0.00807019 -0.0101509)
(-0.0157352 -0.00602399 -0.0110995)
(-0.00215164 -0.00162498 -0.00293763)
(-0.00301383 -0.00560979 0.00554946)
(-0.0158774 -0.00843957 0.0142468)
(-0.0360469 -0.00903875 0.017116)
(-0.0550788 -0.00921804 0.0155256)
(-0.0690393 -0.00966475 0.00986712)
(-0.0740806 -0.0103843 0.00029991)
(-0.0670921 -0.0108676 -0.0113371)
(-0.047574 -0.0102625 -0.0202284)
(-0.0200583 -0.00779447 -0.0191395)
(-0.00252927 -0.00282441 -0.00518645)
(-0.0037038 -0.00453011 0.00470134)
(-0.0192525 -0.00702664 0.0136066)
(-0.043256 -0.00757483 0.0163232)
(-0.065359 -0.00769632 0.0138612)
(-0.0809289 -0.00796502 0.00657874)
(-0.0856845 -0.00838656 -0.00509006)
(-0.0764597 -0.0085353 -0.0186071)
(-0.0532852 -0.00793526 -0.0279716)
(-0.0217335 -0.00609365 -0.0248272)
(-0.00236915 -0.00246191 -0.00667804)
(-0.00404199 -0.00171525 0.00410114)
(-0.0209356 -0.00269272 0.0129324)
(-0.0468419 -0.00290891 0.0154873)
(-0.0703961 -0.00294694 0.0125392)
(-0.0866241 -0.00302582 0.00442496)
(-0.0910588 -0.0031499 -0.00823975)
(-0.0805946 -0.0031652 -0.0225314)
(-0.0556152 -0.00292274 -0.0319202)
(-0.0222294 -0.00225883 -0.0275985)
(-0.00218142 -0.000955668 -0.0073722)
(-0.00404199 0.00171525 0.00410114)
(-0.0209356 0.00269271 0.0129324)
(-0.0468419 0.00290891 0.0154873)
(-0.0703961 0.00294694 0.0125392)
(-0.0866241 0.00302582 0.00442496)
(-0.0910588 0.0031499 -0.00823975)
(-0.0805946 0.0031652 -0.0225314)
(-0.0556152 0.00292274 -0.0319202)
(-0.0222294 0.00225883 -0.0275985)
(-0.00218142 0.000955668 -0.0073722)
(-0.0037038 0.0045301 0.00470134)
(-0.0192525 0.00702664 0.0136066)
(-0.043256 0.00757482 0.0163232)
(-0.065359 0.00769631 0.0138612)
(-0.0809289 0.00796502 0.00657874)
(-0.0856845 0.00838656 -0.00509006)
(-0.0764597 0.0085353 -0.0186071)
(-0.0532852 0.00793526 -0.0279716)
(-0.0217335 0.00609366 -0.0248272)
(-0.00236915 0.00246191 -0.00667804)
(-0.00301383 0.00560978 0.00554947)
(-0.0158774 0.00843956 0.0142468)
(-0.0360469 0.00903874 0.017116)
(-0.0550788 0.00921804 0.0155256)
(-0.0690393 0.00966475 0.00986712)
(-0.0740806 0.0103843 0.000299909)
(-0.0670921 0.0108676 -0.0113371)
(-0.047574 0.0102625 -0.0202284)
(-0.0200583 0.00779447 -0.0191395)
(-0.00252927 0.00282441 -0.00518645)
(-0.0019597 0.00422023 0.00573359)
(-0.0108079 0.00592811 0.0130686)
(-0.0251323 0.00623451 0.01568)
(-0.0391406 0.00637498 0.0151094)
(-0.0500052 0.00682484 0.0117143)
(-0.0546468 0.00760031 0.00539664)
(-0.0503766 0.00830686 -0.00292335)
(-0.0363996 0.00807019 -0.0101509)
(-0.0157352 0.00602399 -0.0110995)
(-0.00215164 0.00162498 -0.00293763)
(-0.000632476 0.00142972 0.00343471)
(-0.00411887 0.0018342 0.00688422)
(-0.0101599 0.00187462 0.00822513)
(-0.0163652 0.00191393 0.00841015)
(-0.0215646 0.00209726 0.00754264)
(-0.0242067 0.00244258 0.00538803)
(-0.0227483 0.00279807 0.00205746)
(-0.0165368 0.00281622 -0.00139704)
(-0.00680108 0.00206868 -0.00280847)
(-0.00066188 0.000311217 -0.000542934)
(-0.00110491 -0.0022321 0.0100281)
(-0.00599429 -0.00294834 0.0179612)
(-0.0138887 -0.00294137 0.0205481)
(-0.0219675 -0.00274504 0.0203093)
(-0.0291008 -0.0026272 0.0175869)
(-0.0335281 -0.00272361 0.0119805)
(-0.0330646 -0.00295936 0.00372676)
(-0.0259591 -0.00299714 -0.00502038)
(-0.0125457 -0.00221651 -0.0094356)
(-0.00217845 -4.97639e-05 -0.00468562)
(-0.00345696 -0.00629162 0.0167225)
(-0.0166638 -0.00885701 0.032951)
(-0.0365858 -0.00893247 0.0376776)
(-0.0557199 -0.0082759 0.0350528)
(-0.0709394 -0.00772589 0.0260694)
(-0.0786651 -0.00761128 0.0107655)
(-0.0751729 -0.00775242 -0.00892595)
(-0.0579306 -0.0075035 -0.0267449)
(-0.0285583 -0.00566693 -0.0311894)
(-0.00544871 -0.000948251 -0.0131013)
(-0.00535411 -0.00802678 0.0178163)
(-0.0250203 -0.0119292 0.0368885)
(-0.0537192 -0.0121017 0.0416907)
(-0.0800231 -0.0110634 0.0363178)
(-0.0994521 -0.00998283 0.0220219)
(-0.107615 -0.00926236 -0.000440915)
(-0.100541 -0.00879706 -0.0272211)
(-0.075948 -0.00818867 -0.0489847)
(-0.0367641 -0.00641252 -0.0499645)
(-0.00673586 -0.00196594 -0.0195957)
(-0.00661791 -0.00632755 0.0171762)
(-0.030632 -0.00964872 0.0367154)
(-0.0650565 -0.00978634 0.0408609)
(-0.0955719 -0.00883385 0.0332457)
(-0.116883 -0.00775171 0.0152936)
(-0.124356 -0.00686573 -0.0114935)
(-0.114262 -0.00620237 -0.0419612)
(-0.0849594 -0.00565503 -0.0648525)
(-0.0403223 -0.00457158 -0.0623141)
(-0.00700708 -0.00172739 -0.0235989)
(-0.00724 -0.00236798 0.0165332)
(-0.0334218 -0.00364722 0.035947)
(-0.0706489 -0.00369462 0.0395781)
(-0.103069 -0.00330883 0.0307453)
(-0.125009 -0.00285612 0.0109926)
(-0.131825 -0.00246307 -0.0177102)
(-0.120071 -0.00216669 -0.0495652)
(-0.0885401 -0.00195952 -0.0725512)
(-0.0415687 -0.00161685 -0.0680548)
(-0.00699958 -0.000669146 -0.0253916)
(-0.00724 0.00236798 0.0165332)
(-0.0334218 0.00364722 0.035947)
(-0.0706489 0.00369461 0.0395781)
(-0.103069 0.00330883 0.0307453)
(-0.125009 0.00285612 0.0109926)
(-0.131825 0.00246307 -0.0177102)
(-0.120071 0.00216669 -0.0495652)
(-0.0885401 0.00195952 -0.0725512)
(-0.0415687 0.00161685 -0.0680548)
(-0.00699958 0.000669145 -0.0253916)
(-0.00661791 0.00632754 0.0171762)
(-0.030632 0.00964872 0.0367154)
(-0.0650565 0.00978633 0.0408609)
(-0.0955718 0.00883385 0.0332457)
(-0.116883 0.00775171 0.0152936)
(-0.124356 0.00686573 -0.0114935)
(-0.114262 0.00620237 -0.0419612)
(-0.0849594 0.00565503 -0.0648525)
(-0.0403223 0.00457158 -0.0623141)
(-0.00700708 0.00172739 -0.0235989)
(-0.00535411 0.00802678 0.0178163)
(-0.0250203 0.0119292 0.0368885)
(-0.0537192 0.0121017 0.0416907)
(-0.0800231 0.0110634 0.0363178)
(-0.099452 0.00998283 0.0220219)
(-0.107615 0.00926236 -0.000440916)
(-0.100541 0.00879706 -0.0272211)
(-0.075948 0.00818867 -0.0489847)
(-0.0367641 0.00641252 -0.0499645)
(-0.00673586 0.00196594 -0.0195957)
(-0.00345696 0.00629161 0.0167225)
(-0.0166638 0.00885701 0.032951)
(-0.0365858 0.00893247 0.0376776)
(-0.0557199 0.0082759 0.0350528)
(-0.0709394 0.00772589 0.0260694)
(-0.0786651 0.00761128 0.0107655)
(-0.0751729 0.00775242 -0.00892596)
(-0.0579306 0.0075035 -0.0267449)
(-0.0285583 0.00566693 -0.0311894)
(-0.00544871 0.000948252 -0.0131013)
(-0.0011049 0.0022321 0.0100282)
(-0.00599428 0.00294834 0.0179612)
(-0.0138887 0.00294136 0.0205481)
(-0.0219674 0.00274504 0.0203093)
(-0.0291008 0.0026272 0.0175869)
(-0.0335281 0.00272361 0.0119805)
(-0.0330646 0.00295936 0.00372676)
(-0.0259591 0.00299714 -0.00502038)
(-0.0125457 0.00221651 -0.0094356)
(-0.00217845 4.97638e-05 -0.00468562)
(-0.00147677 -0.00294038 0.0187504)
(-0.00734285 -0.00381563 0.0319493)
(-0.0164551 -0.00355938 0.0355646)
(-0.0259934 -0.00287836 0.0344901)
(-0.0353249 -0.00219613 0.0294945)
(-0.0427769 -0.00182557 0.0197992)
(-0.0453586 -0.00190686 0.00527124)
(-0.039287 -0.0022643 -0.0111988)
(-0.022504 -0.00198793 -0.021283)
(-0.00546724 0.000128228 -0.013645)
(-0.00466809 -0.0080966 0.0313238)
(-0.0212168 -0.0110586 0.0580893)
(-0.0452937 -0.010274 0.0645557)
(-0.0685138 -0.00799737 0.0589753)
(-0.088327 -0.00552976 0.0433364)
(-0.10123 -0.00374801 0.017454)
(-0.102208 -0.00309425 -0.0166986)
(-0.0854015 -0.00358958 -0.0502974)
(-0.0485064 -0.00357 -0.0634119)
(-0.0117385 -0.000183062 -0.0330057)
(-0.00724844 -0.0100852 0.0344908)
(-0.0322357 -0.014408 0.0659504)
(-0.0673616 -0.0132528 0.0721889)
(-0.0992581 -0.00979015 0.0619503)
(-0.124025 -0.00583272 0.0379264)
(-0.137484 -0.00259006 0.00106134)
(-0.134597 -0.000961316 -0.0442944)
(-0.109664 -0.0013982 -0.0852374)
(-0.0612626 -0.00240022 -0.0951706)
(-0.0144099 -0.000692217 -0.0457775)
(-0.00896856 -0.0078198 0.0345975)
(-0.0396072 -0.011408 0.0669737)
(-0.0817958 -0.010374 0.0719821)
(-0.11844 -0.00733443 0.0581618)
(-0.144898 -0.00380056 0.0287929)
(-0.157136 -0.000810396 -0.0140444)
(-0.150729 0.000680457 -0.0644014)
(-0.120769 0.000239303 -0.107477)
(-0.0666677 -0.00102649 -0.113814)
(-0.0153312 -0.000589068 -0.0528579)
(-0.0098101 -0.00290124 0.0342033)
(-0.0432319 -0.0042652 0.0665003)
(-0.0887917 -0.00385052 0.0706218)
(-0.127428 -0.002654 0.0549346)
(-0.154201 -0.0012599 0.0231128)
(-0.165347 -7.86031e-05 -0.0220861)
(-0.157015 0.000505097 -0.074056)
(-0.124852 0.000306415 -0.117421)
(-0.0685812 -0.000246581 -0.121814)
(-0.0156062 -0.000221839 -0.0558125)
(-0.0098101 0.00290123 0.0342033)
(-0.0432319 0.0042652 0.0665003)
(-0.0887917 0.00385051 0.0706218)
(-0.127428 0.002654 0.0549346)
(-0.154201 0.0012599 0.0231128)
(-0.165347 7.86016e-05 -0.0220861)
(-0.157015 -0.000505098 -0.074056)
(-0.124852 -0.000306415 -0.117421)
(-0.0685812 0.000246581 -0.121814)
(-0.0156062 0.000221838 -0.0558125)
(-0.00896856 0.0078198 0.0345975)
(-0.0396072 0.011408 0.0669737)
(-0.0817958 0.010374 0.0719821)
(-0.11844 0.00733443 0.0581618)
(-0.144898 0.00380056 0.0287929)
(-0.157136 0.000810395 -0.0140444)
(-0.150729 -0.000680458 -0.0644014)
(-0.120769 -0.000239304 -0.107477)
(-0.0666677 0.00102649 -0.113814)
(-0.0153312 0.000589067 -0.0528579)
(-0.00724844 0.0100852 0.0344908)
(-0.0322357 0.014408 0.0659504)
(-0.0673616 0.0132528 0.0721889)
(-0.0992581 0.00979015 0.0619503)
(-0.124025 0.00583272 0.0379264)
(-0.137484 0.00259006 0.00106134)
(-0.134597 0.000961316 -0.0442944)
(-0.109664 0.0013982 -0.0852374)
(-0.0612626 0.00240022 -0.0951706)
(-0.0144099 0.000692217 -0.0457775)
(-0.00466809 0.0080966 0.0313238)
(-0.0212168 0.0110586 0.0580893)
(-0.0452937 0.010274 0.0645557)
(-0.0685138 0.00799737 0.0589753)
(-0.088327 0.00552976 0.0433364)
(-0.10123 0.00374801 0.017454)
(-0.102208 0.00309425 -0.0166986)
(-0.0854015 0.00358958 -0.0502974)
(-0.0485064 0.00357 -0.0634119)
(-0.0117385 0.000183061 -0.0330057)
(-0.00147677 0.00294038 0.0187504)
(-0.00734285 0.00381563 0.0319494)
(-0.0164551 0.00355938 0.0355646)
(-0.0259934 0.00287836 0.0344901)
(-0.0353249 0.00219613 0.0294945)
(-0.0427769 0.00182557 0.0197992)
(-0.0453586 0.00190686 0.00527124)
(-0.039287 0.0022643 -0.0111988)
(-0.022504 0.00198793 -0.021283)
(-0.00546724 -0.000128229 -0.013645)
(-0.00201643 -0.00350267 0.0294231)
(-0.00862843 -0.00434345 0.0479951)
(-0.0181259 -0.00355917 0.0519312)
(-0.0283598 -0.00201979 0.0494251)
(-0.0398119 -0.000334592 0.0418437)
(-0.0514543 0.000971107 0.0277806)
(-0.0595638 0.00131397 0.00588275)
(-0.0574961 0.000383609 -0.0211754)
(-0.0390742 -0.000771304 -0.0412781)
(-0.0120497 3.38714e-05 -0.0314897)
(-0.00589763 -0.00946413 0.0490116)
(-0.0248346 -0.0122782 0.0870003)
(-0.051122 -0.00984998 0.0943982)
(-0.0766502 -0.00488889 0.0852032)
(-0.100445 0.000728929 0.0627481)
(-0.119959 0.00533934 0.025947)
(-0.129095 0.0072453 -0.0247857)
(-0.117756 0.00514256 -0.0799693)
(-0.0777529 0.000953663 -0.110735)
(-0.0231317 9.77657e-05 -0.0694741)
(-0.00889149 -0.011551 0.0547861)
(-0.0374812 -0.0155812 0.0996857)
(-0.0760837 -0.0120939 0.106764)
(-0.110806 -0.00488339 0.0914696)
(-0.139473 0.0033368 0.058401)
(-0.159158 0.0100681 0.00781223)
(-0.164096 0.0128783 -0.0577067)
(-0.144711 0.00998242 -0.124551)
(-0.0939788 0.0036579 -0.155535)
(-0.0275208 0.000188585 -0.0910914)
(-0.010836 -0.00882495 0.0559998)
(-0.045756 -0.0121088 0.102496)
(-0.0919435 -0.00912768 0.108012)
(-0.131166 -0.00302784 0.088377)
(-0.160685 0.00385246 0.0492821)
(-0.178069 0.00934174 -0.00769446)
(-0.178887 0.0113365 -0.0787446)
(-0.154929 0.008669 -0.149041)
(-0.100056 0.00339902 -0.178377)
(-0.029193 0.000215404 -0.101732)
(-0.0117663 -0.00324822 0.0560536)
(-0.0497329 -0.00448216 0.102637)
(-0.0994016 -0.00332131 0.107046)
(-0.140268 -0.000968874 0.08526)
(-0.169446 0.00166096 0.0436589)
(-0.185096 0.00371792 -0.0154645)
(-0.183784 0.00438028 -0.0879237)
(-0.158102 0.00330034 -0.158898)
(-0.102106 0.00131385 -0.187307)
(-0.0298088 9.50916e-05 -0.105867)
(-0.0117663 0.00324822 0.0560536)
(-0.0497329 0.00448215 0.102637)
(-0.0994016 0.00332131 0.107046)
(-0.140268 0.00096887 0.08526)
(-0.169446 -0.00166096 0.0436589)
(-0.185096 -0.00371792 -0.0154645)
(-0.183784 -0.00438028 -0.0879237)
(-0.158102 -0.00330034 -0.158898)
(-0.102106 -0.00131385 -0.187307)
(-0.0298088 -9.50918e-05 -0.105867)
(-0.010836 0.00882495 0.0559998)
(-0.045756 0.0121088 0.102496)
(-0.0919435 0.00912768 0.108012)
(-0.131166 0.00302783 0.088377)
(-0.160685 -0.00385247 0.0492821)
(-0.178069 -0.00934174 -0.00769446)
(-0.178887 -0.0113365 -0.0787446)
(-0.154929 -0.008669 -0.149041)
(-0.100056 -0.00339902 -0.178377)
(-0.029193 -0.000215405 -0.101732)
(-0.00889149 0.011551 0.0547861)
(-0.0374812 0.0155812 0.0996857)
(-0.0760837 0.0120939 0.106764)
(-0.110806 0.00488339 0.0914696)
(-0.139473 -0.0033368 0.058401)
(-0.159158 -0.0100681 0.00781223)
(-0.164096 -0.0128783 -0.0577067)
(-0.144711 -0.00998242 -0.124551)
(-0.0939788 -0.0036579 -0.155535)
(-0.0275208 -0.000188585 -0.0910914)
(-0.00589763 0.00946413 0.0490116)
(-0.0248346 0.0122782 0.0870003)
(-0.051122 0.00984997 0.0943982)
(-0.0766502 0.00488889 0.0852032)
(-0.100445 -0.000728929 0.0627481)
(-0.119959 -0.00533934 0.025947)
(-0.129095 -0.0072453 -0.0247857)
(-0.117756 -0.00514256 -0.0799693)
(-0.0777529 -0.000953663 -0.110735)
(-0.0231317 -9.77666e-05 -0.0694741)
(-0.00201643 0.00350267 0.0294231)
(-0.00862843 0.00434345 0.0479951)
(-0.0181259 0.00355917 0.0519312)
(-0.0283598 0.0020198 0.0494252)
(-0.0398119 0.000334592 0.0418437)
(-0.0514543 -0.000971107 0.0277806)
(-0.0595638 -0.00131397 0.00588275)
(-0.0574961 -0.000383609 -0.0211754)
(-0.0390742 0.000771303 -0.0412781)
(-0.0120497 -3.38723e-05 -0.0314897)
(-0.00334419 -0.00394621 0.0422557)
(-0.0108296 -0.00450923 0.0647841)
(-0.01923 -0.00285885 0.0673134)
(-0.0283608 -1.21408e-05 0.0622809)
(-0.0406024 0.00329309 0.0518424)
(-0.0564552 0.0062465 0.0336939)
(-0.0722406 0.00767649 0.00438331)
(-0.078281 0.0062095 -0.0356571)
(-0.062571 0.0024822 -0.0713421)
(-0.0228545 -0.000322456 -0.0637966)
(-0.00787338 -0.0103982 0.0695108)
(-0.0283492 -0.0124559 0.117411)
(-0.0535393 -0.0075841 0.123891)
(-0.0773362 0.00106893 0.110388)
(-0.101587 0.0110349 0.081936)
(-0.125965 0.0196962 0.0359862)
(-0.144641 0.023641 -0.0304164)
(-0.144145 0.0193045 -0.111024)
(-0.110379 0.00817123 -0.171022)
(-0.0388232 -0.000796807 -0.130478)
(-0.0109015 -0.0123864 0.0779053)
(-0.0410994 -0.0154513 0.135257)
(-0.0783964 -0.00882372 0.141934)
(-0.110388 0.00302214 0.122017)
(-0.13786 0.0162788 0.0824083)
(-0.160478 0.0270094 0.021869)
(-0.173501 0.030762 -0.0611066)
(-0.16514 0.0241213 -0.157465)
(-0.124306 0.0100836 -0.224317)
(-0.043587 -0.000472504 -0.16308)
(-0.012742 -0.00930676 0.0802008)
(-0.0490691 -0.0118055 0.140062)
(-0.0934197 -0.00637156 0.14539)
(-0.128733 0.00324473 0.121343)
(-0.155403 0.0136978 0.0763295)
(-0.174065 0.0215872 0.0103084)
(-0.182078 0.0235102 -0.0778365)
(-0.169848 0.0176063 -0.178976)
(-0.128018 0.00708423 -0.247784)
(-0.0453573 -0.000176945 -0.177497)
(-0.0135839 -0.00339558 0.0806973)
(-0.0527587 -0.00432962 0.140932)
(-0.100172 -0.00226115 0.145223)
(-0.136388 0.00136662 0.119237)
(-0.161823 0.0052367 0.0722701)
(-0.177957 0.00802522 0.00484873)
(-0.183645 0.00852854 -0.08431)
(-0.170435 0.00621372 -0.186703)
(-0.129154 0.00244337 -0.256275)
(-0.0461112 -2.99587e-05 -0.182871)
(-0.0135839 0.00339558 0.0806973)
(-0.0527587 0.00432962 0.140932)
(-0.100172 0.00226114 0.145223)
(-0.136388 -0.00136662 0.119237)
(-0.161823 -0.00523671 0.0722701)
(-0.177957 -0.00802522 0.00484873)
(-0.183645 -0.00852854 -0.08431)
(-0.170435 -0.00621372 -0.186703)
(-0.129154 -0.00244337 -0.256275)
(-0.0461112 2.99592e-05 -0.182871)
(-0.012742 0.00930675 0.0802008)
(-0.0490691 0.0118055 0.140062)
(-0.0934197 0.00637155 0.14539)
(-0.128733 -0.00324473 0.121343)
(-0.155403 -0.0136978 0.0763295)
(-0.174065 -0.0215872 0.0103084)
(-0.182078 -0.0235102 -0.0778365)
(-0.169848 -0.0176063 -0.178976)
(-0.128018 -0.00708423 -0.247784)
(-0.0453573 0.000176945 -0.177497)
(-0.0109015 0.0123864 0.0779053)
(-0.0410994 0.0154513 0.135257)
(-0.0783964 0.00882372 0.141934)
(-0.110388 -0.00302214 0.122017)
(-0.13786 -0.0162788 0.0824083)
(-0.160478 -0.0270094 0.021869)
(-0.173501 -0.030762 -0.0611066)
(-0.16514 -0.0241213 -0.157465)
(-0.124306 -0.0100836 -0.224317)
(-0.043587 0.000472504 -0.16308)
(-0.00787338 0.0103982 0.0695108)
(-0.0283492 0.0124559 0.117411)
(-0.0535393 0.0075841 0.123891)
(-0.0773362 -0.00106893 0.110388)
(-0.101587 -0.0110349 0.081936)
(-0.125965 -0.0196962 0.0359862)
(-0.144641 -0.023641 -0.0304164)
(-0.144145 -0.0193045 -0.111024)
(-0.110379 -0.00817123 -0.171022)
(-0.0388232 0.000796806 -0.130478)
(-0.00334419 0.00394621 0.0422557)
(-0.0108296 0.00450923 0.0647841)
(-0.01923 0.00285885 0.0673134)
(-0.0283608 1.21417e-05 0.062281)
(-0.0406024 -0.00329309 0.0518424)
(-0.0564552 -0.0062465 0.0336939)
(-0.0722406 -0.00767649 0.00438331)
(-0.078281 -0.0062095 -0.0356571)
(-0.062571 -0.0024822 -0.0713421)
(-0.0228545 0.000322456 -0.0637966)
(-0.00708363 -0.00460045 0.0592973)
(-0.0163231 -0.00471719 0.0807777)
(-0.02031 -0.00191987 0.0783661)
(-0.0243624 0.00255262 0.0688426)
(-0.0335369 0.00784856 0.0552155)
(-0.0508157 0.0130353 0.0340148)
(-0.0743629 0.016282 -0.000866691)
(-0.0923908 0.0146198 -0.0540927)
(-0.0876543 0.00728768 -0.110475)
(-0.0361936 -0.00136331 -0.117268)
(-0.0126995 -0.0114937 0.0944941)
(-0.034517 -0.0124131 0.146301)
(-0.0524751 -0.00467403 0.147619)
(-0.0665445 0.00790348 0.128473)
(-0.0825523 0.0223812 0.095731)
(-0.103839 0.0355466 0.0453393)
(-0.127817 0.0423192 -0.0301133)
(-0.140529 0.0359454 -0.133662)
(-0.12711 0.0159619 -0.232697)
(-0.0500122 -0.00433763 -0.220836)
(-0.0154264 -0.013093 0.104658)
(-0.0456048 -0.0149285 0.168537)
(-0.0737501 -0.00511511 0.171283)
(-0.0932351 0.0108937 0.146958)
(-0.108946 0.0284461 0.104594)
(-0.124514 0.0427056 0.0412238)
(-0.139459 0.0476123 -0.0497663)
(-0.14327 0.0373131 -0.171227)
(-0.128531 0.0145422 -0.285182)
(-0.0509405 -0.00419086 -0.262936)
(-0.016847 -0.00958296 0.107394)
(-0.051959 -0.0111697 0.174779)
(-0.0856241 -0.00348515 0.177032)
(-0.106657 0.00893398 0.149824)
(-0.119697 0.0220147 0.103695)
(-0.129485 0.0316796 0.0364623)
(-0.138241 0.033571 -0.0585506)
(-0.138501 0.0246773 -0.185653)
(-0.126512 0.00873771 -0.305477)
(-0.0514099 -0.00263684 -0.27997)
(-0.0174391 -0.00345181 0.10803)
(-0.0547285 -0.00405307 0.176106)
(-0.0906045 -0.00119377 0.177701)
(-0.111686 0.00338618 0.149201)
(-0.122749 0.00809557 0.101976)
(-0.129493 0.0113778 0.0341365)
(-0.135835 0.0117179 -0.061488)
(-0.135666 0.00830994 -0.19039)
(-0.125931 0.00279721 -0.312624)
(-0.051936 -0.000853704 -0.28626)
(-0.0174391 0.00345181 0.10803)
(-0.0547285 0.00405307 0.176106)
(-0.0906045 0.00119376 0.177701)
(-0.111686 -0.00338619 0.149201)
(-0.122749 -0.00809557 0.101976)
(-0.129493 -0.0113778 0.0341365)
(-0.135835 -0.0117179 -0.061488)
(-0.135666 -0.00830994 -0.19039)
(-0.125931 -0.00279721 -0.312624)
(-0.051936 0.000853705 -0.28626)
(-0.016847 0.00958296 0.107394)
(-0.051959 0.0111697 0.174779)
(-0.0856241 0.00348514 0.177032)
(-0.106657 -0.00893398 0.149824)
(-0.119697 -0.0220147 0.103695)
(-0.129485 -0.0316796 0.0364623)
(-0.138241 -0.033571 -0.0585506)
(-0.138501 -0.0246773 -0.185653)
(-0.126512 -0.00873771 -0.305477)
(-0.0514099 0.00263684 -0.27997)
(-0.0154264 0.013093 0.104658)
(-0.0456048 0.0149285 0.168537)
(-0.0737501 0.00511511 0.171283)
(-0.0932351 -0.0108937 0.146958)
(-0.108946 -0.0284461 0.104594)
(-0.124514 -0.0427056 0.0412238)
(-0.139459 -0.0476123 -0.0497662)
(-0.14327 -0.0373131 -0.171227)
(-0.128531 -0.0145422 -0.285182)
(-0.0509405 0.00419086 -0.262936)
(-0.0126995 0.0114937 0.0944941)
(-0.034517 0.0124131 0.146301)
(-0.0524751 0.00467403 0.147619)
(-0.0665445 -0.00790348 0.128473)
(-0.0825523 -0.0223812 0.095731)
(-0.103839 -0.0355466 0.0453393)
(-0.127817 -0.0423192 -0.0301133)
(-0.140529 -0.0359454 -0.133662)
(-0.12711 -0.0159619 -0.232697)
(-0.0500122 0.00433763 -0.220836)
(-0.00708363 0.00460045 0.0592973)
(-0.0163231 0.00471719 0.0807777)
(-0.02031 0.00191987 0.0783661)
(-0.0243624 -0.00255262 0.0688426)
(-0.0335369 -0.00784856 0.0552155)
(-0.0508157 -0.0130353 0.0340148)
(-0.0743629 -0.016282 -0.00086669)
(-0.0923908 -0.0146198 -0.0540927)
(-0.0876543 -0.00728768 -0.110475)
(-0.0361936 0.00136331 -0.117268)
(-0.0165188 -0.00629294 0.0818609)
(-0.0282548 -0.00639519 0.0925368)
(-0.018007 -0.0025864 0.0807538)
(-0.00871937 0.00337951 0.0645554)
(-0.00721943 0.0103665 0.0477454)
(-0.0187712 0.0176539 0.0256863)
(-0.0455641 0.0232563 -0.0109546)
(-0.0762237 0.0218797 -0.0736219)
(-0.096475 0.0102766 -0.152931)
(-0.0418359 -0.00608967 -0.195972)
(-0.0255795 -0.0144165 0.122616)
(-0.0497794 -0.0151388 0.167044)
(-0.0451322 -0.00552502 0.158076)
(-0.0339845 0.00952171 0.131098)
(-0.0263839 0.0266712 0.0962792)
(-0.028947 0.0431267 0.0487261)
(-0.0464112 0.053764 -0.0234345)
(-0.0680606 0.0474899 -0.136843)
(-0.0949254 0.0190063 -0.27459)
(-0.0358611 -0.014395 -0.326676)
(-0.0284048 -0.0152178 0.132529)
(-0.0593354 -0.0169574 0.191922)
(-0.0614459 -0.00576949 0.186408)
(-0.0511124 0.0116397 0.15623)
(-0.038453 0.0305877 0.114453)
(-0.0300687 0.0467313 0.0571092)
(-0.0338617 0.054219 -0.0268918)
(-0.0435386 0.0434885 -0.156734)
(-0.0746312 0.013893 -0.315096)
(-0.0274968 -0.0125207 -0.368019)
(-0.0294199 -0.0106128 0.13475)
(-0.0636982 -0.0121329 0.198721)
(-0.0692781 -0.00379721 0.194156)
(-0.0587718 0.0089578 0.162837)
(-0.0424802 0.0222912 0.119067)
(-0.0274715 0.0326523 0.0592773)
(-0.0243386 0.0359755 -0.0276496)
(-0.0298919 0.0268984 -0.162918)
(-0.0662662 0.00748275 -0.329274)
(-0.025729 -0.00739796 -0.383291)
(-0.0297354 -0.00373234 0.135165)
(-0.0653046 -0.00430671 0.200112)
(-0.0720792 -0.00127593 0.195507)
(-0.0610775 0.00330405 0.163728)
(-0.0428839 0.00796894 0.119592)
(-0.0250546 0.0113987 0.0595811)
(-0.0196848 0.0122092 -0.0278359)
(-0.0248922 0.00879756 -0.165016)
(-0.0644212 0.00229349 -0.334446)
(-0.0259331 -0.00232598 -0.388932)
(-0.0297354 0.00373234 0.135165)
(-0.0653046 0.00430671 0.200112)
(-0.0720792 0.00127593 0.195507)
(-0.0610775 -0.00330405 0.163728)
(-0.0428839 -0.00796894 0.119592)
(-0.0250546 -0.0113987 0.0595811)
(-0.0196848 -0.0122092 -0.0278359)
(-0.0248922 -0.00879756 -0.165016)
(-0.0644212 -0.00229348 -0.334446)
(-0.0259331 0.00232599 -0.388932)
(-0.0294199 0.0106128 0.13475)
(-0.0636982 0.0121329 0.198721)
(-0.0692781 0.00379721 0.194156)
(-0.0587718 -0.0089578 0.162837)
(-0.0424802 -0.0222912 0.119067)
(-0.0274715 -0.0326523 0.0592773)
(-0.0243386 -0.0359755 -0.0276496)
(-0.0298919 -0.0268984 -0.162918)
(-0.0662662 -0.00748275 -0.329274)
(-0.025729 0.00739796 -0.383291)
(-0.0284048 0.0152178 0.132529)
(-0.0593354 0.0169574 0.191922)
(-0.0614459 0.00576949 0.186408)
(-0.0511124 -0.0116397 0.15623)
(-0.038453 -0.0305877 0.114453)
(-0.0300687 -0.0467313 0.0571092)
(-0.0338617 -0.054219 -0.0268918)
(-0.0435386 -0.0434885 -0.156734)
(-0.0746312 -0.013893 -0.315096)
(-0.0274968 0.0125207 -0.368019)
(-0.0255795 0.0144165 0.122616)
(-0.0497794 0.0151388 0.167044)
(-0.0451322 0.00552502 0.158076)
(-0.0339845 -0.00952171 0.131098)
(-0.0263839 -0.0266712 0.0962792)
(-0.028947 -0.0431267 0.0487261)
(-0.0464112 -0.053764 -0.0234345)
(-0.0680606 -0.0474899 -0.136843)
(-0.0949254 -0.0190063 -0.27459)
(-0.0358611 0.014395 -0.326676)
(-0.0165188 0.00629294 0.0818609)
(-0.0282548 0.00639519 0.0925368)
(-0.018007 0.0025864 0.0807538)
(-0.00871938 -0.00337951 0.0645554)
(-0.00721943 -0.0103665 0.0477454)
(-0.0187712 -0.0176539 0.0256863)
(-0.0455641 -0.0232563 -0.0109546)
(-0.0762237 -0.0218797 -0.0736219)
(-0.096475 -0.0102766 -0.152931)
(-0.0418359 0.00608967 -0.195972)
(-0.0238415 -0.0112251 0.150213)
(-0.0202989 -0.0120781 0.0981598)
(0.0280751 -0.00746945 0.062881)
(0.0623509 -0.000899313 0.0415203)
(0.0831195 0.0065103 0.025075)
(0.0853366 0.0144006 0.00724186)
(0.0630588 0.0216305 -0.0213446)
(0.0255362 0.0208414 -0.0788709)
(-0.0421273 0.00511952 -0.17407)
(-0.00681179 -0.0178929 -0.259754)
(-0.0425221 -0.0230234 0.209702)
(-0.0416492 -0.0261515 0.169738)
(0.0231917 -0.0167737 0.128107)
(0.0790476 -0.00252634 0.0959635)
(0.12374 0.0137855 0.066313)
(0.151675 0.0303366 0.0324836)
(0.149882 0.0446208 -0.0169774)
(0.130799 0.042677 -0.107411)
(0.0400061 0.0100583 -0.256397)
(0.0437029 -0.0319684 -0.36958)
(-0.047813 -0.0209385 0.219921)
(-0.0512578 -0.0259602 0.190222)
(0.0126457 -0.0172103 0.151655)
(0.0731423 -0.00287813 0.118256)
(0.12677 0.0134924 0.0847933)
(0.168659 0.0289722 0.0450809)
(0.181079 0.0402125 -0.0113732)
(0.17639 0.0355173 -0.110512)
(0.0807841 0.00581057 -0.275244)
(0.0631469 -0.0227123 -0.395205)
(-0.0488433 -0.0134105 0.220944)
(-0.05407 -0.0172662 0.194374)
(0.00855536 -0.0113472 0.157389)
(0.0702483 -0.00165923 0.124254)
(0.126922 0.00912086 0.0901777)
(0.174019 0.0188327 0.0489971)
(0.191319 0.0249632 -0.00968544)
(0.190756 0.0209047 -0.111744)
(0.0908409 0.00338077 -0.281901)
(0.0662093 -0.0119108 -0.403893)
(-0.0488942 -0.00452724 0.220745)
(-0.0545176 -0.00591408 0.194718)
(0.00781965 -0.00383882 0.158079)
(0.0700635 -0.000484764 0.125084)
(0.127783 0.00317095 0.0910655)
(0.176449 0.00636677 0.0497664)
(0.194865 0.00822683 -0.00948278)
(0.19454 0.00673054 -0.112671)
(0.0919799 0.00113512 -0.284676)
(0.0658381 -0.00354052 -0.407059)
(-0.0488942 0.00452723 0.220745)
(-0.0545176 0.00591408 0.194718)
(0.00781965 0.00383882 0.158079)
(0.0700635 0.000484761 0.125084)
(0.127783 -0.00317095 0.0910655)