/*--------------------------------*- C++ -*----------------------------------*\
  =========                 |
  \\      /  F ield         | OpenFOAM: The Open Source CFD Toolbox
   \\    /   O peration     | Website:  https://openfoam.org
    \\  /    A nd           | Version:  9
     \\/     M anipulation  |
\*---------------------------------------------------------------------------*/
FoamFile
{
    format      ascii;
    class       surfaceScalarField;
    location    "0.15";
    object      phi;
}
// * * * * * * * * * * * * * * * * * * * * * * * * * * * * * * * * * * * * * //

dimensions      [0 3 -1 0 0 0 0];

internalField   nonuniform List<scalar> 
2700
(
-1.25586e-07
-3.85186e-08
1.64102e-07
-4.26573e-07
-1.59579e-08
3.16945e-07
-7.4776e-07
-7.52257e-09
3.2871e-07
-1.0074e-06
-1.24227e-08
2.72064e-07
-1.15377e-06
-2.9396e-08
1.75764e-07
-1.14259e-06
-5.72537e-08
4.60701e-08
-9.4615e-07
-8.60804e-08
-1.10355e-07
-5.8471e-07
-1.02635e-07
-2.58804e-07
-1.80575e-07
-8.80534e-08
-3.16082e-07
-2.03363e-08
-1.60239e-07
-2.43382e-07
-6.25125e-08
2.67376e-07
-7.82262e-07
-5.15136e-08
5.74437e-07
-1.3473e-06
-4.07248e-08
5.9824e-07
-1.79066e-06
-4.31582e-08
4.74097e-07
-2.02703e-06
-5.88982e-08
2.65875e-07
-1.99141e-06
-8.46207e-08
-8.25557e-09
-1.64064e-06
-1.11282e-07
-3.25565e-07
-1.01247e-06
-1.24109e-07
-6.06703e-07
-3.19419e-07
-1.0467e-07
-6.76432e-07
-3.48332e-08
-3.04922e-07
-2.80727e-07
-5.65917e-08
2.74806e-07
-9.06824e-07
-5.87432e-08
6.33328e-07
-1.56051e-06
-5.11421e-08
6.64101e-07
-2.07016e-06
-4.96617e-08
5.16152e-07
-2.33857e-06
-5.6888e-08
2.66401e-07
-2.29054e-06
-7.09345e-08
-6.17104e-08
-1.87847e-06
-8.56413e-08
-4.37718e-07
-1.14781e-06
-9.12534e-08
-7.6351e-07
-3.51179e-07
-7.69185e-08
-8.24384e-07
-3.17671e-08
-3.54245e-07
-2.86229e-07
-3.21646e-08
2.61802e-07
-9.39318e-07
-3.67055e-08
6.31051e-07
-1.62338e-06
-3.29954e-08
6.65919e-07
-2.15654e-06
-3.10491e-08
5.14542e-07
-2.43661e-06
-3.30114e-08
2.56195e-07
-2.38439e-06
-3.82018e-08
-8.49494e-08
-1.94972e-06
-4.3801e-08
-4.76512e-07
-1.18166e-06
-4.54572e-08
-8.13852e-07
-3.512e-07
-3.85407e-08
-8.68842e-07
-1.80451e-08
-3.64922e-07
-2.85085e-07
3.13665e-12
2.52918e-07
-9.44612e-07
1.79729e-12
6.22819e-07
-1.63736e-06
1.27466e-12
6.59755e-07
-2.17791e-06
1.03447e-12
5.09493e-07
-2.46207e-06
7.63183e-13
2.51147e-07
-2.40892e-06
5.44621e-13
-9.13493e-08
-1.9672e-06
3.68691e-13
-4.85523e-07
-1.18756e-06
2.3113e-13
-8.25095e-07
-3.47854e-07
-1.28788e-14
-8.78246e-07
-4.97894e-13
-3.65899e-07
-2.85085e-07
3.2171e-08
2.52918e-07
-9.44612e-07
3.6709e-08
6.2282e-07
-1.63736e-06
3.29981e-08
6.59755e-07
-2.17791e-06
3.10512e-08
5.09493e-07
-2.46207e-06
3.3013e-08
2.51147e-07
-2.40892e-06
3.82029e-08
-9.13495e-08
-1.9672e-06
4.38017e-08
-4.85523e-07
-1.18756e-06
4.54576e-08
-8.25095e-07
-3.47854e-07
3.85406e-08
-8.78246e-07
1.80441e-08
-3.65899e-07
-2.8623e-07
5.65983e-08
2.61802e-07
-9.39319e-07
5.8746e-08
6.31052e-07
-1.62338e-06
5.11446e-08
6.65919e-07
-2.15654e-06
4.96638e-08
5.14542e-07
-2.43661e-06
5.68896e-08
2.56194e-07
-2.38439e-06
7.09356e-08
-8.495e-08
-1.94972e-06
8.56419e-08
-4.76512e-07
-1.18166e-06
9.12537e-08
-8.13852e-07
-3.512e-07
7.69185e-08
-8.68843e-07
3.17661e-08
-3.64922e-07
-2.80727e-07
6.25189e-08
2.74807e-07
-9.06825e-07
5.15139e-08
6.3333e-07
-1.56051e-06
4.07266e-08
6.64102e-07
-2.07016e-06
4.31599e-08
5.16152e-07
-2.33857e-06
5.88997e-08
2.664e-07
-2.29054e-06
8.46217e-08
-6.17112e-08
-1.87847e-06
1.11283e-07
-4.37719e-07
-1.14781e-06
1.2411e-07
-7.6351e-07
-3.51178e-07
1.0467e-07
-8.24385e-07
3.48328e-08
-3.54245e-07
-2.43379e-07
3.85187e-08
2.67379e-07
-7.82262e-07
1.59549e-08
5.74442e-07
-1.3473e-06
7.52332e-09
5.98243e-07
-1.79066e-06
1.24237e-08
4.74098e-07
-2.02704e-06
2.9397e-08
2.65875e-07
-1.99141e-06
5.72546e-08
-8.25627e-09
-1.64064e-06
8.60811e-08
-3.25566e-07
-1.01247e-06
1.02636e-07
-6.06704e-07
-3.19418e-07
8.80545e-08
-6.76433e-07
2.0337e-08
-3.04922e-07
-1.25586e-07
1.64104e-07
-4.26579e-07
3.16948e-07
-7.47766e-07
3.2871e-07
-1.00741e-06
2.72064e-07
-1.15377e-06
1.75764e-07
-1.14259e-06
4.60699e-08
-9.46152e-07
-1.10355e-07
-5.84712e-07
-2.58805e-07
-1.80575e-07
-3.16082e-07
-1.60238e-07
-2.83463e-07
-1.1159e-07
5.59155e-07
-8.23003e-07
-9.65246e-08
9.5301e-07
-1.37589e-06
-7.83486e-08
9.59947e-07
-1.81514e-06
-7.02496e-08
7.8156e-07
-2.05939e-06
-7.34273e-08
4.93442e-07
-2.0436e-06
-8.6642e-08
1.16921e-07
-1.71776e-06
-1.0478e-07
-3.31411e-07
-1.10659e-06
-1.10405e-07
-7.59571e-07
-3.92541e-07
-7.91873e-08
-9.50942e-07
1.39066e-08
-5.66686e-07
-6.05587e-07
-1.447e-07
9.06073e-07
-1.66174e-06
-1.50557e-07
1.68462e-06
-2.71586e-06
-1.29213e-07
1.70323e-06
-3.52573e-06
-1.14924e-07
1.32865e-06
-3.94647e-06
-1.14677e-07
7.27856e-07
-3.87569e-06
-1.27996e-07
-3.76759e-08
-3.23658e-06
-1.44836e-07
-9.24623e-07
-2.08867e-06
-1.47115e-07
-1.7179e-06
-7.64121e-07
-1.09119e-07
-1.97105e-06
-8.6425e-09
-1.04649e-06
-7.24676e-07
-1.14941e-07
9.69724e-07
-1.98392e-06
-1.33855e-07
1.87587e-06
-3.23208e-06
-1.18511e-07
1.90156e-06
-4.18077e-06
-1.04501e-07
1.45442e-06
-4.66278e-06
-1.00501e-07
7.34238e-07
-4.56089e-06
-1.06547e-07
-1.85051e-07
-3.79365e-06
-1.15427e-07
-1.23437e-06
-2.43425e-06
-1.1441e-07
-2.15562e-06
-8.80854e-07
-8.7649e-08
-2.39925e-06
-2.2343e-08
-1.2214e-06
-7.52079e-07
-6.08035e-08
9.59745e-07
-2.07549e-06
-7.53263e-08
1.89594e-06
-3.38837e-06
-6.78332e-08
1.92812e-06
-4.38433e-06
-5.94304e-08
1.46543e-06
-4.8877e-06
-5.57436e-08
7.14808e-07
-4.77535e-06
-5.70452e-08
-2.46801e-07
-3.96309e-06
-5.99803e-08
-1.34422e-06
-2.52977e-06
-5.85701e-08
-2.30302e-06
-9.01948e-07
-4.6043e-08
-2.53827e-06
-1.62875e-08
-1.27293e-06
-7.54145e-07
1.97294e-12
9.46257e-07
-2.09299e-06
-2.31393e-13
1.88634e-06
-3.42367e-06
-4.35967e-13
1.9226e-06
-4.43364e-06
1.19245e-13
1.46003e-06
-4.94411e-06
3.7687e-13
7.05877e-07
-4.82956e-06
5.09219e-13
-2.62941e-07
-4.00435e-06
5.47397e-13
-1.37071e-06
-2.54947e-06
6.37244e-13
-2.33855e-06
-9.01946e-07
5.81748e-13
-2.57182e-06
1.1255e-13
-1.28413e-06
-7.54145e-07
6.08072e-08
9.46257e-07
-2.09299e-06
7.53254e-08
1.88634e-06
-3.42367e-06
6.78322e-08
1.9226e-06
-4.43363e-06
5.94306e-08
1.46003e-06
-4.94411e-06
5.57443e-08
7.05876e-07
-4.82956e-06
5.70461e-08
-2.62941e-07
-4.00435e-06
5.99814e-08
-1.37071e-06
-2.54947e-06
5.85714e-08
-2.33855e-06
-9.01946e-07
4.60442e-08
-2.57182e-06
1.62877e-08
-1.28413e-06
-7.52078e-07
1.14944e-07
9.59744e-07
-2.07549e-06
1.33853e-07
1.89594e-06
-3.38837e-06
1.1851e-07
1.92812e-06
-4.38433e-06
1.04502e-07
1.46543e-06
-4.8877e-06
1.00502e-07
7.14807e-07
-4.77535e-06
1.06548e-07
-2.46802e-07
-3.96309e-06
1.15428e-07
-1.34422e-06
-2.52976e-06
1.14411e-07
-2.30302e-06
-9.01948e-07
8.76504e-08
-2.53827e-06
2.23434e-08
-1.27293e-06
-7.24674e-07
1.447e-07
9.69724e-07
-1.98392e-06
1.50553e-07
1.87587e-06
-3.23207e-06
1.29211e-07
1.90156e-06
-4.18077e-06
1.14924e-07
1.45442e-06
-4.66278e-06
1.14678e-07
7.34237e-07
-4.56089e-06
1.27997e-07
-1.85052e-07
-3.79365e-06
1.44837e-07
-1.23437e-06
-2.43425e-06
1.47117e-07
-2.15562e-06
-8.80854e-07
1.09121e-07
-2.39925e-06
8.64302e-09
-1.2214e-06
-6.05582e-07
1.11587e-07
9.06075e-07
-1.66173e-06
9.65209e-08
1.68462e-06
-2.71586e-06
7.83478e-08
1.70323e-06
-3.52573e-06
7.02503e-08
1.32865e-06
-3.94647e-06
7.34285e-08
7.27856e-07
-3.87569e-06
8.66432e-08
-3.76771e-08
-3.23658e-06
1.04781e-07
-9.24624e-07
-2.08867e-06
1.10407e-07
-1.7179e-06
-7.6412e-07
7.91891e-08
-1.97105e-06
-1.39057e-08
-1.04649e-06
-2.8346e-07
5.59151e-07
-8.23003e-07
9.53012e-07
-1.37589e-06
9.59947e-07
-1.81514e-06
7.8156e-07
-2.05939e-06
4.93442e-07
-2.0436e-06
1.16921e-07
-1.71776e-06
-3.31411e-07
-1.10659e-06
-7.5957e-07
-3.9254e-07
-9.5094e-07
-5.66684e-07
-3.88616e-07
-1.74433e-07
1.1222e-06
-1.08732e-06
-1.66763e-07
1.81848e-06
-1.78956e-06
-1.40995e-07
1.80318e-06
-2.35465e-06
-1.20559e-07
1.46721e-06
-2.69521e-06
-1.11439e-07
9.45442e-07
-2.72801e-06
-1.15422e-07
2.65142e-07
-2.36781e-06
-1.30755e-07
-5.60862e-07
-1.59739e-06
-1.34032e-07
-1.39595e-06
-6.11193e-07
-9.12234e-08
-1.84592e-06
3.5252e-08
-1.21313e-06
-8.54773e-07
-2.19438e-07
1.80585e-06
-2.26546e-06
-2.4019e-07
3.16874e-06
-3.64454e-06
-2.07783e-07
3.14909e-06
-4.71288e-06
-1.75725e-07
2.45215e-06
-5.31051e-06
-1.58295e-07
1.37235e-06
-5.30778e-06
-1.59821e-07
3.99757e-09
-4.56357e-06
-1.69802e-07
-1.62979e-06
-3.07475e-06
-1.68555e-07
-3.17221e-06
-1.20423e-06
-1.19668e-07
-3.81312e-06
8.62375e-09
-2.22409e-06
-1.0334e-06
-1.68561e-07
1.95225e-06
-2.73112e-06
-2.01898e-07
3.5353e-06
-4.37833e-06
-1.77346e-07
3.51832e-06
-5.6389e-06
-1.48093e-07
2.68737e-06
-6.32853e-06
-1.29283e-07
1.39486e-06
-6.29602e-06
-1.24261e-07
-2.53119e-07
-5.39166e-06
-1.26968e-07
-2.18156e-06
-3.61387e-06
-1.23107e-07
-3.97886e-06
-1.40221e-06
-9.10762e-08
-4.6395e-06
-1.2625e-08
-2.60236e-06
-1.07618e-06
-8.69053e-08
1.95427e-06
-2.86436e-06
-1.09663e-07
3.59188e-06
-4.60027e-06
-9.72152e-08
3.5839e-06
-5.92588e-06
-8.04009e-08
2.72335e-06
-6.64767e-06
-6.84712e-08
1.37578e-06
-6.60673e-06
-6.34287e-08
-3.48567e-07
-5.64767e-06
-6.27389e-08
-2.36752e-06
-3.77018e-06
-5.99209e-08
-4.24369e-06
-1.44645e-06
-4.58577e-08
-4.90722e-06
-1.22504e-08
-2.71975e-06
-1.07999e-06
1.58157e-12
1.93934e-06
-2.88927e-06
-5.863e-13
3.58595e-06
-4.64885e-06
-6.96672e-13
3.58496e-06
-5.99333e-06
-3.64696e-14
2.72411e-06
-6.72573e-06
1.78758e-13
1.36981e-06
-6.68425e-06
1.67901e-13
-3.67858e-07
-5.71068e-06
1.77821e-13
-2.40701e-06
-3.80524e-06
1.80057e-13
-4.30391e-06
-1.45166e-06
4.25231e-15
-4.97125e-06
-6.8271e-15
-2.74804e-06
-1.07999e-06
8.69084e-08
1.93934e-06
-2.88927e-06
1.09662e-07
3.58595e-06
-4.64885e-06
9.72138e-08
3.58496e-06
-5.99333e-06
8.04009e-08
2.72411e-06
-6.72573e-06
6.84715e-08
1.36981e-06
-6.68425e-06
6.3429e-08
-3.67858e-07
-5.71068e-06
6.27393e-08
-2.40701e-06
-3.80524e-06
5.99213e-08
-4.30391e-06
-1.45166e-06
4.58579e-08
-4.97125e-06
1.22504e-08
-2.74804e-06
-1.07618e-06
1.68564e-07
1.95427e-06
-2.86436e-06
2.01896e-07
3.59189e-06
-4.60027e-06
1.77344e-07
3.5839e-06
-5.92588e-06
1.48093e-07
2.72335e-06
-6.64767e-06
1.29283e-07
1.37578e-06
-6.60673e-06
1.24261e-07
-3.48568e-07
-5.64767e-06
1.26969e-07
-2.36752e-06
-3.77018e-06
1.23107e-07
-4.24369e-06
-1.44645e-06
9.10765e-08
-4.90722e-06
1.2625e-08
-2.71975e-06
-1.0334e-06
2.1944e-07
1.95225e-06
-2.73112e-06
2.40188e-07
3.5353e-06
-4.37832e-06
2.07782e-07
3.51832e-06
-5.6389e-06
1.75725e-07
2.68737e-06
-6.32853e-06
1.58295e-07
1.39486e-06
-6.29602e-06
1.59821e-07
-2.53121e-07
-5.39166e-06
1.69802e-07
-2.18156e-06
-3.61387e-06
1.68556e-07
-3.97886e-06
-1.40221e-06
1.19668e-07
-4.6395e-06
-8.62403e-09
-2.60236e-06
-8.5477e-07
1.74433e-07
1.80585e-06
-2.26546e-06
1.6676e-07
3.16874e-06
-3.64454e-06
1.40994e-07
3.1491e-06
-4.71287e-06
1.20559e-07
2.45215e-06
-5.31051e-06
1.1144e-07
1.37235e-06
-5.30778e-06
1.15422e-07
3.9957e-09
-4.56357e-06
1.30755e-07
-1.62979e-06
-3.07475e-06
1.34033e-07
-3.17221e-06
-1.20423e-06
9.12235e-08
-3.81312e-06
-3.52524e-08
-2.22409e-06
-3.88617e-07
1.1222e-06
-1.08733e-06
1.81848e-06
-1.78957e-06
1.80318e-06
-2.35465e-06
1.46721e-06
-2.69521e-06
9.45442e-07
-2.72801e-06
2.65142e-07
-2.36781e-06
-5.60861e-07
-1.5974e-06
-1.39595e-06
-6.11194e-07
-1.84592e-06
-1.21313e-06
-5.12008e-07
-2.46621e-07
1.88083e-06
-1.38482e-06
-2.43619e-07
2.93491e-06
-2.24705e-06
-2.06143e-07
2.87155e-06
-2.96188e-06
-1.70488e-07
2.35252e-06
-3.45062e-06
-1.48072e-07
1.58225e-06
-3.61165e-06
-1.45513e-07
5.71685e-07
-3.30033e-06
-1.59847e-07
-7.12333e-07
-2.38802e-06
-1.70047e-07
-2.13821e-06
-1.01811e-06
-1.24568e-07
-3.09126e-06
3.92258e-08
-2.27047e-06
-1.1265e-06
-3.0664e-07
2.99237e-06
-2.90933e-06
-3.40383e-07
5.04833e-06
-4.62683e-06
-2.89975e-07
4.95043e-06
-5.99547e-06
-2.3256e-07
3.88286e-06
-6.8676e-06
-1.90763e-07
2.28717e-06
-7.07725e-06
-1.71343e-07
2.3947e-07
-6.38512e-06
-1.80339e-07
-2.30142e-06
-4.59318e-06
-1.86109e-07
-4.94808e-06
-1.97787e-06
-1.41269e-07
-6.41173e-06
1.02918e-08
-4.17303e-06
-1.36076e-06
-2.31958e-07
3.23833e-06
-3.51091e-06
-2.78559e-07
5.62362e-06
-5.56934e-06
-2.38133e-07
5.52491e-06
-7.19016e-06
-1.85531e-07
4.26116e-06
-8.19898e-06
-1.43887e-07
2.3568e-06
-8.42039e-06
-1.21262e-07
-8.17919e-08
-7.56224e-06
-1.16526e-07
-3.10353e-06
-5.41351e-06
-1.16631e-07
-6.19706e-06
-2.31155e-06
-9.26227e-08
-7.7901e-06
-1.07748e-08
-4.89285e-06
-1.41478e-06
-1.18006e-07
3.2551e-06
-3.67816e-06
-1.48417e-07
5.72512e-06
-5.84784e-06
-1.27126e-07
5.64258e-06
-7.55377e-06
-9.69579e-08
4.34071e-06
-8.61262e-06
-7.17865e-08
2.36253e-06
-8.84042e-06
-5.62287e-08
-1.85796e-07
-7.93124e-06
-5.06465e-08
-3.34258e-06
-5.66271e-06
-4.96039e-08
-6.57925e-06
-2.39937e-06
-4.1374e-08
-8.22181e-06
-1.04351e-08
-5.11946e-06
-1.41814e-06
1.2713e-12
3.23947e-06
-3.70625e-06
-4.78303e-13
5.72565e-06
-5.90453e-06
-5.41676e-13
5.65611e-06
-7.63476e-06
-8.4985e-14
4.35738e-06
-8.7101e-06
-1.64089e-13
2.37337e-06
-8.94378e-06
-3.81891e-13
-1.90406e-07
-8.02394e-06
-4.55241e-13
-3.3775e-06
-5.72408e-06
-6.15003e-13
-6.65337e-06
-2.41731e-06
-5.78448e-13
-8.31939e-06
-4.36535e-14
-5.17579e-06
-1.41814e-06
1.18009e-07
3.23947e-06
-3.70625e-06
1.48416e-07
5.72565e-06
-5.90453e-06
1.27125e-07
5.65611e-06
-7.63476e-06
9.69578e-08
4.35738e-06
-8.7101e-06
7.17862e-08
2.37337e-06
-8.94378e-06
5.62279e-08
-1.90407e-07
-8.02394e-06
5.06456e-08
-3.3775e-06
-5.72408e-06
4.96028e-08
-6.65337e-06
-2.41731e-06
4.1373e-08
-8.31939e-06
1.0435e-08
-5.17579e-06
-1.41478e-06
2.31961e-07
3.2551e-06
-3.67815e-06
2.78558e-07
5.72512e-06
-5.84784e-06
2.38132e-07
5.64258e-06
-7.55377e-06
1.85531e-07
4.34071e-06
-8.61262e-06
1.43886e-07
2.36253e-06
-8.84042e-06
1.21261e-07
-1.85797e-07
-7.93124e-06
1.16525e-07
-3.34258e-06
-5.66271e-06
1.1663e-07
-6.57925e-06
-2.39937e-06
9.26218e-08
-8.22181e-06
1.07745e-08
-5.11946e-06
-1.36076e-06
3.06642e-07
3.23833e-06
-3.5109e-06
3.40381e-07
5.62362e-06
-5.56934e-06
2.89974e-07
5.52491e-06
-7.19016e-06
2.3256e-07
4.26115e-06
-8.19898e-06
1.90762e-07
2.3568e-06
-8.42039e-06
1.71342e-07
-8.17927e-08
-7.56224e-06
1.80337e-07
-3.10353e-06
-5.41351e-06
1.86108e-07
-6.19706e-06
-2.31155e-06
1.41268e-07
-7.7901e-06
-1.02924e-08
-4.89285e-06
-1.1265e-06
2.46621e-07
2.99237e-06
-2.90933e-06
2.43618e-07
5.04833e-06
-4.62683e-06
2.06142e-07
4.95043e-06
-5.99547e-06
1.70488e-07
3.88286e-06
-6.8676e-06
1.48072e-07
2.28717e-06
-7.07725e-06
1.45512e-07
2.39469e-07
-6.38512e-06
1.59846e-07
-2.30142e-06
-4.59318e-06
1.70046e-07
-4.94808e-06
-1.97787e-06
1.24567e-07
-6.41173e-06
-3.92265e-08
-4.17303e-06
-5.12008e-07
1.88083e-06
-1.38482e-06
2.93491e-06
-2.24705e-06
2.87155e-06
-2.96188e-06
2.35252e-06
-3.45062e-06
1.58225e-06
-3.61165e-06
5.71685e-07
-3.30033e-06
-7.12333e-07
-2.38802e-06
-2.13821e-06
-1.01811e-06
-3.09126e-06
-2.27047e-06
-7.12108e-07
-3.41958e-07
2.9349e-06
-1.8073e-06
-3.37717e-07
4.36783e-06
-2.85191e-06
-2.73961e-07
4.19012e-06
-3.74648e-06
-2.05673e-07
3.45277e-06
-4.45004e-06
-1.51955e-07
2.43777e-06
-4.85588e-06
-1.23854e-07
1.10137e-06
-4.73798e-06
-1.24882e-07
-7.05349e-07
-3.75915e-06
-1.50279e-07
-2.96677e-06
-1.84763e-06
-1.37496e-07
-4.86529e-06
1.2111e-08
-4.1302e-06
-1.52811e-06
-4.18265e-07
4.59679e-06
-3.77726e-06
-4.59326e-07
7.41909e-06
-5.8862e-06
-3.70864e-07
7.15627e-06
-7.61858e-06
-2.62888e-07
5.67246e-06
-8.88458e-06
-1.70675e-07
3.57189e-06
-9.50217e-06
-1.1114e-07
8.44341e-07
-9.09762e-06
-9.19479e-08
-2.73891e-06
-7.11814e-06
-1.11822e-07
-6.96602e-06
-3.47266e-06
-1.18746e-07
-1.0076e-05
-1.30086e-08
-7.62057e-06
-1.82831e-06
-3.11184e-07
4.95957e-06
-4.53699e-06
-3.67534e-07
8.2405e-06
-7.07049e-06
-2.9504e-07
7.98259e-06
-9.12925e-06
-1.98077e-07
6.2551e-06
-1.06029e-05
-1.1096e-07
3.77072e-06
-1.12845e-05
-4.87075e-08
5.37361e-07
-1.07453e-05
-2.28491e-08
-3.71177e-06
-8.35742e-06
-3.34886e-08
-8.6633e-06
-4.04237e-06
-5.41375e-08
-1.21698e-05
-2.09881e-08
-8.92723e-06
-1.89135e-06
-1.56286e-07
4.99155e-06
-4.73561e-06
-1.92714e-07
8.39456e-06
-7.4044e-06
-1.54095e-07
8.17043e-06
-9.57264e-06
-9.94409e-08
6.41031e-06
-1.11208e-05
-4.91365e-08
3.84883e-06
-1.1837e-05
-1.23414e-08
4.94048e-07
-1.12657e-05
5.16932e-09
-3.94184e-06
-8.74888e-06
-1.33056e-10
-9.12946e-06
-4.21263e-06
-1.53714e-08
-1.27968e-05
-1.20915e-08
-9.34098e-06
-1.89154e-06
9.00459e-13
4.97472e-06
-4.76206e-06
-3.81086e-13
8.40346e-06
-7.46373e-06
-5.13651e-13
8.20368e-06
-9.66279e-06
-3.22045e-13
6.457e-06
-1.12367e-05
-5.27244e-13
3.89815e-06
-1.19702e-05
-5.87487e-13
5.30757e-07
-1.14004e-05
-3.99211e-13
-3.94219e-06
-8.85549e-06
-2.32126e-13
-9.19837e-06
-4.25891e-06
3.02647e-13
-1.29313e-05
3.37227e-13
-9.44679e-06
-1.89154e-06
1.56288e-07
4.97472e-06
-4.76206e-06
1.92713e-07
8.40346e-06
-7.46373e-06
1.54094e-07
8.20368e-06
-9.66279e-06
9.94404e-08
6.457e-06
-1.12367e-05
4.91355e-08
3.89815e-06
-1.19702e-05
1.23402e-08
5.30757e-07
-1.14004e-05
-5.17016e-09
-3.94219e-06
-8.85549e-06
1.32596e-10
-9.19837e-06
-4.25891e-06
1.53718e-08
-1.29313e-05
1.20921e-08
-9.44679e-06
-1.89135e-06
3.11186e-07
4.99155e-06
-4.73561e-06
3.67533e-07
8.39456e-06
-7.40441e-06
2.95039e-07
8.17043e-06
-9.57264e-06
1.98076e-07
6.41031e-06
-1.11208e-05
1.10959e-07
3.84883e-06
-1.1837e-05
4.87062e-08
4.94048e-07
-1.12657e-05
2.28485e-08
-3.94184e-06
-8.74888e-06
3.34884e-08
-9.12946e-06
-4.21263e-06
5.41379e-08
-1.27968e-05
2.09886e-08
-9.34098e-06
-1.82831e-06
4.18266e-07
4.95956e-06
-4.53699e-06
4.59325e-07
8.2405e-06
-7.07049e-06
3.70863e-07
7.98259e-06
-9.12925e-06
2.62888e-07
6.2551e-06
-1.06029e-05
1.70674e-07
3.77072e-06
-1.12845e-05
1.11138e-07
5.37361e-07
-1.07453e-05
9.19473e-08
-3.71177e-06
-8.35742e-06
1.11822e-07
-8.6633e-06
-4.04237e-06
1.18747e-07
-1.21698e-05
1.30089e-08
-8.92723e-06
-1.52811e-06
3.41958e-07
4.59679e-06
-3.77726e-06
3.37716e-07
7.41909e-06
-5.8862e-06
2.73961e-07
7.15627e-06
-7.61858e-06
2.05673e-07
5.67246e-06
-8.88458e-06
1.51954e-07
3.57189e-06
-9.50217e-06
1.23852e-07
8.44341e-07
-9.09762e-06
1.24882e-07
-2.73891e-06
-7.11814e-06
1.50279e-07
-6.96602e-06
-3.47266e-06
1.37497e-07
-1.0076e-05
-1.21103e-08
-7.62057e-06
-7.12108e-07
2.93489e-06
-1.8073e-06
4.36783e-06
-2.85191e-06
4.19012e-06
-3.74648e-06
3.45277e-06
-4.45004e-06
2.43777e-06
-4.85588e-06
1.10137e-06
-4.73798e-06
-7.0535e-07
-3.75915e-06
-2.96677e-06
-1.84763e-06
-4.86529e-06
-4.1302e-06
-1.06767e-06
-4.73146e-07
4.47571e-06
-2.4182e-06
-4.48349e-07
6.16671e-06
-3.6058e-06
-3.19179e-07
5.6969e-06
-4.64224e-06
-1.71848e-07
4.66106e-06
-5.57958e-06
-3.35843e-08
3.40869e-06
-6.35611e-06
7.5543e-08
1.80235e-06
-6.66966e-06
1.40382e-07
-5.32178e-07
-5.8762e-06
1.09238e-07
-3.86947e-06
-3.39671e-06
1.1277e-08
-7.35605e-06
-5.42487e-08
-7.47267e-06
-2.16744e-06
-5.64449e-07
6.85553e-06
-4.95892e-06
-5.94398e-07
1.03566e-05
-7.4111e-06
-4.21279e-07
9.71055e-06
-9.4387e-06
-2.0434e-07
7.73255e-06
-1.10906e-05
3.06811e-09
5.18718e-06
-1.22487e-05
1.78965e-07
1.89901e-06
-1.24301e-05
2.90179e-07
-2.70731e-06
-1.06209e-05
2.61407e-07
-8.92743e-06
-5.94082e-06
9.05726e-08
-1.48353e-05
-6.83335e-08
-1.35473e-05
-2.5442e-06
-4.10872e-07
7.35019e-06
-5.89543e-06
-4.66086e-07
1.14634e-05
-8.85229e-06
-3.28314e-07
1.08465e-05
-1.12649e-05
-1.44377e-07
8.60778e-06
-1.31716e-05
3.53935e-08
5.64511e-06
-1.44208e-05
1.88074e-07
1.77746e-06
-1.44863e-05
2.82278e-07
-3.63837e-06
-1.22422e-05
2.60454e-07
-1.09065e-05
-6.76069e-06
1.11588e-07
-1.76722e-05
-4.32375e-08
-1.5713e-05
-2.61035e-06
-2.03228e-07
7.39425e-06
-6.11507e-06
-2.40996e-07
1.16742e-05
-9.22744e-06
-1.69108e-07
1.11236e-05
-1.1769e-05
-6.92537e-08
8.8767e-06
-1.37705e-05
2.94098e-08
5.85631e-06
-1.50708e-05
1.12883e-07
1.86957e-06
-1.51281e-05
1.62336e-07
-3.76456e-06
-1.27652e-05
1.49832e-07
-1.13817e-05
-7.02892e-06
6.93238e-08
-1.84909e-05
-1.69938e-08
-1.63961e-05
-2.60251e-06
5.76488e-13
7.37401e-06
-6.13071e-06
-1.96704e-13
1.16907e-05
-9.27787e-06
-3.71766e-13
1.11817e-05
-1.18559e-05
-4.21275e-13
8.96579e-06
-1.38926e-05
-6.25459e-13
5.96429e-06
-1.52249e-05
-4.1359e-13
1.97591e-06
-1.53031e-05
1.1524e-13
-3.70166e-06
-1.29251e-05
1.86049e-13
-1.14265e-05
-7.11821e-06
2.87534e-13
-1.8669e-05
3.13739e-13
-1.6582e-05
-2.60251e-06
2.03229e-07
7.37401e-06
-6.13071e-06
2.40995e-07
1.16907e-05
-9.27787e-06
1.69108e-07
1.11817e-05
-1.18559e-05
6.9253e-08
8.96578e-06
-1.38926e-05
-2.9411e-08
5.96429e-06
-1.52249e-05
-1.12884e-07
1.97591e-06
-1.53031e-05
-1.62336e-07
-3.70166e-06
-1.29251e-05
-1.49832e-07
-1.14265e-05
-7.11821e-06
-6.93233e-08
-1.8669e-05
1.69943e-08
-1.6582e-05
-2.61035e-06
4.10873e-07
7.39425e-06
-6.11507e-06
4.66086e-07
1.16742e-05
-9.22744e-06
3.28313e-07
1.11236e-05
-1.1769e-05
1.44376e-07
8.8767e-06
-1.37705e-05
-3.53946e-08
5.85631e-06
-1.50708e-05
-1.88075e-07
1.86957e-06
-1.51281e-05
-2.82277e-07
-3.76456e-06
-1.27652e-05
-2.60453e-07
-1.13817e-05
-7.02892e-06
-1.11588e-07
-1.84909e-05
4.32379e-08
-1.63961e-05
-2.5442e-06
5.6445e-07
7.35019e-06
-5.89543e-06
5.94398e-07
1.14634e-05
-8.85228e-06
4.21279e-07
1.08465e-05
-1.12649e-05
2.04339e-07
8.60777e-06
-1.31716e-05
-3.06946e-09
5.64511e-06
-1.44208e-05
-1.78965e-07
1.77746e-06
-1.44863e-05
-2.90177e-07
-3.63837e-06
-1.22422e-05
-2.61406e-07
-1.09065e-05
-6.7607e-06
-9.05716e-08
-1.76722e-05
6.83332e-08
-1.5713e-05
-2.16744e-06
4.73146e-07
6.85553e-06
-4.95892e-06
4.48349e-07
1.03566e-05
-7.4111e-06
3.1918e-07
9.71055e-06
-9.4387e-06
1.71848e-07
7.73255e-06
-1.10906e-05
3.35832e-08
5.18718e-06
-1.22487e-05
-7.55437e-08
1.89901e-06
-1.24301e-05
-1.40381e-07
-2.70731e-06
-1.06209e-05
-1.09237e-07
-8.92743e-06
-5.94082e-06
-1.12757e-08
-1.48353e-05
5.42491e-08
-1.35473e-05
-1.06767e-06
4.47571e-06
-2.4182e-06
6.1667e-06
-3.6058e-06
5.6969e-06
-4.64224e-06
4.66106e-06
-5.57958e-06
3.40869e-06
-6.35611e-06
1.80235e-06
-6.66966e-06
-5.32179e-07
-5.8762e-06
-3.86946e-06
-3.39671e-06
-7.35605e-06
-7.47267e-06
-1.76205e-06
-6.57863e-07
6.89563e-06
-3.25069e-06
-5.72032e-07
8.22738e-06
-4.31985e-06
-2.95121e-07
7.06118e-06
-5.24509e-06
1.66858e-08
5.56962e-06
-6.23802e-06
3.24822e-07
4.0768e-06
-7.36879e-06
6.33665e-07
2.29946e-06
-8.36133e-06
8.95874e-07
-4.35512e-07
-8.26149e-06
9.0304e-07
-4.87234e-06
-5.6193e-06
5.19926e-07
-1.05182e-05
-1.24129e-07
-1.29678e-05
-3.23541e-06
-7.58986e-07
1.01921e-05
-6.41606e-06
-7.41344e-07
1.37066e-05
-8.76729e-06
-3.98148e-07
1.21648e-05
-1.05722e-05
2.39282e-08
9.53023e-06
-1.2136e-05
4.52174e-07
6.62358e-06
-1.35334e-05
8.68195e-07
3.06191e-06
-1.4376e-05
1.19306e-06
-2.16188e-06
-1.3383e-05
1.18497e-06
-1.02023e-05
-8.62965e-06
6.61842e-07
-1.97306e-05
-1.45022e-07
-2.21561e-05
-3.68259e-06
-5.37416e-07
1.08112e-05
-7.49831e-06
-5.72342e-07
1.51101e-05
-1.03712e-05
-3.16157e-07
1.36374e-05
-1.25132e-05
1.80741e-08
1.07556e-05
-1.42255e-05
3.608e-07
7.44883e-06
-1.55784e-05
6.83996e-07
3.31451e-06
-1.61884e-05
9.14376e-07
-2.74969e-06
-1.47592e-05
8.86289e-07
-1.2037e-05
-9.35286e-06
4.79581e-07
-2.28963e-05
-8.83117e-08
-2.51226e-05
-3.73668e-06
-2.61169e-07
1.08547e-05
-7.70668e-06
-2.9307e-07
1.53649e-05
-1.0734e-05
-1.64836e-07
1.39996e-05
-1.29904e-05
8.47361e-09
1.11427e-05
-1.47687e-05
1.8733e-07
7.80803e-06
-1.61401e-05
3.51805e-07
3.57323e-06
-1.67266e-05
4.61102e-07
-2.72484e-06
-1.52156e-05
4.38737e-07
-1.24451e-05
-9.63135e-06
2.34875e-07
-2.38304e-05
-3.31382e-08
-2.60827e-05
-3.71303e-06
2.35229e-13
1.08259e-05
-7.69544e-06
-1.54627e-13
1.538e-05
-1.0753e-05
-5.97887e-13
1.40744e-05
-1.30444e-05
-9.50535e-13
1.12656e-05
-1.48574e-05
-9.42555e-13
7.96468e-06
-1.62666e-05
-3.67969e-13
3.73692e-06
-1.68901e-05
-3.20167e-14
-2.61706e-06
-1.53936e-05
-4.91517e-13
-1.24843e-05
-9.75802e-06
-6.26108e-13
-2.40697e-05
3.02915e-14
-2.63732e-05
-3.71303e-06
2.61169e-07
1.08259e-05
-7.69544e-06
2.9307e-07
1.538e-05
-1.0753e-05
1.64835e-07
1.40744e-05
-1.30444e-05
-8.47545e-09
1.12656e-05
-1.48574e-05
-1.87332e-07
7.96468e-06
-1.62666e-05
-3.51805e-07
3.73692e-06
-1.68901e-05
-4.61102e-07
-2.61706e-06
-1.53936e-05
-4.38737e-07
-1.24843e-05
-9.75802e-06
-2.34876e-07
-2.40697e-05
3.31384e-08
-2.63732e-05
-3.73668e-06
5.37417e-07
1.08547e-05
-7.70668e-06
5.72342e-07
1.53649e-05
-1.0734e-05
3.16156e-07
1.39996e-05
-1.29904e-05
-1.80759e-08
1.11427e-05
-1.47687e-05
-3.60802e-07
7.80803e-06
-1.61401e-05
-6.83997e-07
3.57323e-06
-1.67266e-05
-9.14375e-07
-2.72484e-06
-1.52156e-05
-8.86289e-07
-1.24451e-05
-9.63136e-06
-4.79582e-07
-2.38304e-05
8.83111e-08
-2.60827e-05
-3.68259e-06
7.58986e-07
1.08112e-05
-7.49831e-06
7.41344e-07
1.51101e-05
-1.03712e-05
3.98148e-07
1.36374e-05
-1.25132e-05
-2.39298e-08
1.07556e-05
-1.42255e-05
-4.52176e-07
7.44883e-06
-1.55784e-05
-8.68195e-07
3.31451e-06
-1.61884e-05
-1.19306e-06
-2.74969e-06
-1.47592e-05
-1.18497e-06
-1.2037e-05
-9.35286e-06
-6.61843e-07
-2.28963e-05
1.45021e-07
-2.51226e-05
-3.23541e-06
6.57863e-07
1.01921e-05
-6.41606e-06
5.72033e-07
1.37066e-05
-8.76729e-06
2.95121e-07
1.21648e-05
-1.05722e-05
-1.6687e-08
9.53022e-06
-1.2136e-05
-3.24823e-07
6.62358e-06
-1.35334e-05
-6.33665e-07
3.06191e-06
-1.4376e-05
-8.95873e-07
-2.16188e-06
-1.3383e-05
-9.03039e-07
-1.02023e-05
-8.62965e-06
-5.19926e-07
-1.97306e-05
1.24129e-07
-2.21561e-05
-1.76205e-06
6.89563e-06
-3.25069e-06
8.22738e-06
-4.31984e-06
7.06117e-06
-5.24509e-06
5.56962e-06
-6.23802e-06
4.07679e-06
-7.36879e-06
2.29946e-06
-8.36133e-06
-4.35512e-07
-8.26149e-06
-4.87234e-06
-5.61931e-06
-1.05182e-05
-1.29678e-05
-3.08168e-06
-9.195e-07
1.08968e-05
-3.92777e-06
-7.29573e-07
9.80304e-06
-4.01184e-06
-2.11179e-07
7.35642e-06
-4.09317e-06
3.40294e-07
5.31066e-06
-4.57295e-06
8.81005e-07
3.67557e-06
-5.67955e-06
1.46009e-06
1.94596e-06
-7.37545e-06
2.02927e-06
-7.68879e-07
-8.60976e-06
2.14574e-06
-5.78377e-06
-7.1861e-06
1.335e-06
-1.32768e-05
-4.11422e-07
-1.97425e-05
-5.16968e-06
-1.0259e-06
1.54681e-05
-7.48547e-06
-9.37788e-07
1.62306e-05
-8.15721e-06
-3.426e-07
1.2968e-05
-8.25956e-06
3.48651e-07
9.62421e-06
-8.42758e-06
1.05209e-06
6.62052e-06
-9.01052e-06
1.76938e-06
3.33557e-06
-1.00408e-05
2.39472e-06
-1.49708e-06
-1.06249e-05
2.42257e-06
-9.89508e-06
-8.37251e-06
1.33028e-06
-2.19783e-05
-5.11496e-07
-3.04285e-05
-5.70861e-06
-7.06029e-07
1.61999e-05
-8.59785e-06
-7.1752e-07
1.77791e-05
-9.58276e-06
-3.04163e-07
1.45839e-05
-9.70976e-06
2.13131e-07
1.10181e-05
-9.63492e-06
7.46506e-07
7.67957e-06
-9.76031e-06
1.27401e-06
3.93527e-06
-1.02332e-05
1.68991e-06
-1.57203e-06
-1.04417e-05
1.6518e-06
-1.10577e-05
-8.12645e-06
8.52425e-07
-2.47337e-05
-3.16521e-07
-3.3444e-05
-5.74033e-06
-3.37102e-07
1.62261e-05
-8.73922e-06
-3.65472e-07
1.80118e-05
-9.81727e-06
-1.68592e-07
1.49421e-05
-9.97014e-06
8.94212e-08
1.14193e-05
-9.84654e-06
3.58799e-07
8.07214e-06
-9.87024e-06
6.19172e-07
4.25177e-06
-1.02502e-05
8.11268e-07
-1.46622e-06
-1.04612e-05
7.77107e-07
-1.13594e-05
-8.20278e-06
3.95252e-07
-2.56317e-05
-1.24434e-07
-3.44775e-05
-5.69378e-06
-3.27392e-13
1.61825e-05
-8.68054e-06
-6.40209e-13
1.80013e-05
-9.77097e-06
-1.32922e-12
1.49963e-05
-9.94017e-06
-1.76262e-12
1.15243e-05
-9.82914e-06
-1.30521e-12
8.21245e-06
-9.87082e-06
-7.25832e-14
4.39778e-06
-1.02928e-05
3.47397e-13
-1.38384e-06
-1.05718e-05
-5.23901e-13
-1.14281e-05
-8.33042e-06
3.36871e-14
-2.59159e-05
1.62685e-13
-3.4828e-05
-5.69378e-06
3.37101e-07
1.61825e-05
-8.68054e-06
3.65471e-07
1.80013e-05
-9.77097e-06
1.68589e-07
1.49963e-05
-9.94017e-06
-8.94245e-08
1.15243e-05
-9.82914e-06
-3.58801e-07
8.21245e-06
-9.87082e-06
-6.19172e-07
4.39778e-06
-1.02928e-05
-8.11267e-07
-1.38384e-06
-1.05718e-05
-7.77108e-07
-1.14281e-05
-8.33042e-06
-3.95252e-07
-2.59159e-05
1.24434e-07
-3.4828e-05
-5.74033e-06
7.06028e-07
1.62261e-05
-8.73922e-06
7.17519e-07
1.80118e-05
-9.81727e-06
3.04161e-07
1.4942e-05
-9.97014e-06
-2.13134e-07
1.14193e-05
-9.84654e-06
-7.46508e-07
8.07214e-06
-9.87024e-06
-1.27401e-06
4.25177e-06
-1.02502e-05
-1.68991e-06
-1.46622e-06
-1.04612e-05
-1.6518e-06
-1.13594e-05
-8.20278e-06
-8.52425e-07
-2.56317e-05
3.1652e-07
-3.44775e-05
-5.70861e-06
1.0259e-06
1.61999e-05
-8.59785e-06
9.37787e-07
1.77791e-05
-9.58276e-06
3.42599e-07
1.45839e-05
-9.70976e-06
-3.48654e-07
1.10181e-05
-9.63492e-06
-1.05209e-06
7.67957e-06
-9.76031e-06
-1.76938e-06
3.93527e-06
-1.02332e-05
-2.39472e-06
-1.57203e-06
-1.04417e-05
-2.42257e-06
-1.10577e-05
-8.12645e-06
-1.33028e-06
-2.47337e-05
5.11495e-07
-3.3444e-05
-5.16968e-06
9.19501e-07
1.54681e-05
-7.48547e-06
7.29573e-07
1.62306e-05
-8.15722e-06
2.11179e-07
1.2968e-05
-8.25956e-06
-3.40296e-07
9.62421e-06
-8.42758e-06
-8.81006e-07
6.62052e-06
-9.01052e-06
-1.46009e-06
3.33557e-06
-1.00408e-05
-2.02927e-06
-1.49708e-06
-1.06249e-05
-2.14574e-06
-9.89508e-06
-8.3725e-06
-1.335e-06
-2.19783e-05
4.11422e-07
-3.04285e-05
-3.08168e-06
1.08968e-05
-3.92777e-06
9.80304e-06
-4.01184e-06
7.35642e-06
-4.09317e-06
5.31066e-06
-4.57296e-06
3.67557e-06
-5.67955e-06
1.94596e-06
-7.37545e-06
-7.6888e-07
-8.60976e-06
-5.78377e-06
-7.1861e-06
-1.32768e-05
-1.97425e-05
-3.089e-06
-1.49315e-06
1.5479e-05
-7.92554e-07
-1.16682e-06
8.67342e-06
2.11055e-06
-3.69332e-07
4.82265e-06
4.07211e-06
3.69294e-07
2.9798e-06
4.92469e-06
1.05272e-06
1.77027e-06
4.42196e-06
1.75974e-06
6.88955e-07
2.18292e-06
2.54386e-06
-1.07371e-06
-1.40996e-06
2.73315e-06
-4.92403e-06
-3.60435e-06
1.42659e-06
-1.2509e-05
-1.75563e-06
-2.15912e-05
-5.45104e-06
-1.50033e-06
2.09264e-05
-2.65045e-06
-1.41769e-06
1.36809e-05
1.66162e-06
-6.21849e-07
8.90842e-06
5.36206e-06
2.46605e-07
6.04646e-06
8.04016e-06
1.08525e-06
3.9099e-06
9.289e-06
1.93586e-06
1.9106e-06
8.43934e-06
2.7715e-06
-8.75063e-07
5.13918e-06
2.83984e-06
-6.7016e-06
1.31638e-06
1.18324e-06
-1.79121e-05
-1.55132e-06
-2.93164e-05
-6.02038e-06
-9.72242e-07
2.16922e-05
-3.30379e-06
-1.04208e-06
1.46869e-05
1.21172e-06
-5.44524e-07
9.99105e-06
5.40338e-06
6.76059e-08
7.00543e-06
8.81033e-06
6.85301e-07
4.67256e-06
1.09541e-05
1.30486e-06
2.42252e-06
1.09282e-05
1.86941e-06
-6.44044e-07
7.94066e-06
1.87678e-06
-7.10716e-06
2.91521e-06
7.80802e-07
-1.93058e-05
-8.62109e-07
-3.1218e-05
-5.99042e-06
-4.48556e-07
2.16928e-05
-3.25445e-06
-5.19603e-07
1.47533e-05
1.29243e-06
-2.9689e-07
1.01475e-05
5.57714e-06
-2.88103e-09
7.2051e-06
9.154e-06
3.02566e-07
4.87802e-06