/*--------------------------------*- C++ -*----------------------------------*\
  =========                 |
  \\      /  F ield         | OpenFOAM: The Open Source CFD Toolbox
   \\    /   O peration     | Website:  https://openfoam.org
    \\  /    A nd           | Version:  9
     \\/     M anipulation  |
\*---------------------------------------------------------------------------*/
FoamFile
{
    format      ascii;
    class       volScalarField;
    location    "0.44";
    object      p;
}
// * * * * * * * * * * * * * * * * * * * * * * * * * * * * * * * * * * * * * //

dimensions      [0 2 -2 0 0 0 0];

internalField   nonuniform List<scalar> 
1000
(
-1.46364e-06
-0.000430663
-8.7929e-06
0.00117988
0.00316314
0.00579299
0.00862694
0.0109455
0.0120639
0.0112729
0.000170349
-0.000625872
-0.000296288
0.000934044
0.00307804
0.00597345
0.00911547
0.011638
0.0127089
0.0114022
0.000822498
-0.000210346
8.61984e-05
0.00140062
0.0037544
0.00696918
0.010455
0.0131311
0.014009
0.012036
0.00150191
0.00032024
0.000603722
0.00199688
0.00453397
0.00803028
0.0117579
0.014512
0.0151949
0.0127103
0.00191984
0.000671148
0.000952145
0.00238976
0.00502495
0.00866431
0.0125229
0.0153064
0.0158753
0.0131264
0.00191973
0.000671051
0.000952072
0.00238971
0.00502491
0.00866427
0.0125229
0.0153063
0.0158753
0.0131264
0.00150156
0.000319943
0.000603501
0.00199672
0.00453384
0.00803017
0.0117578
0.0145119
0.0151948
0.0127102
0.000821808
-0.000210873
8.58254e-05
0.00140035
0.0037542
0.00696902
0.0104548
0.0131309
0.0140089
0.0120359
0.000168999
-0.000626721
-0.000296823
0.00093369
0.00307779
0.00597326
0.00911531
0.0116379
0.0127087
0.0114021
-4.42731e-06
-0.00043194
-9.47999e-06
0.00117947
0.00316286
0.00579278
0.00862676
0.0109453
0.0120637
0.0112728
0.000330351
-7.48098e-05
0.00036667
0.00145146
0.00322695
0.00560972
0.00823828
0.0104857
0.0116263
0.0105835
0.000845733
1.56782e-05
0.0003864
0.00145941
0.00325996
0.00571993
0.00847866
0.0108351
0.0119354
0.0102551
0.00188108
0.000708015
0.00102792
0.00210621
0.00397158
0.00655984
0.00953395
0.0119709
0.0128965
0.010522
0.00281626
0.00140249
0.00168017
0.00276615
0.00470019
0.0074367
0.0105644
0.0130426
0.0137996
0.0109278
0.00335716
0.00182244
0.00207725
0.00316765
0.00514038
0.0079631
0.0111711
0.013663
0.0143232
0.0112095
0.00335706
0.00182235
0.00207718
0.0031676
0.00514034
0.00796306
0.0111711
0.013663
0.0143232
0.0112095
0.00281596
0.00140222
0.00167996
0.00276598
0.00470006
0.00743658
0.0105643
0.0130425
0.0137995
0.0109277
0.00188054
0.000707559
0.00102758
0.00210596
0.00397138
0.00655967
0.00953382
0.0119707
0.0128964
0.0105218
0.000844852
1.5016e-05
0.000385936
0.00145908
0.00325972
0.00571974
0.0084785
0.010835
0.0119353
0.0102549
0.000329034
-7.56686e-05
0.000366114
0.0014511
0.00322668
0.00560952
0.00823812
0.0104856
0.0116261
0.0105834
-0.000958608
-0.00149584
-0.00113095
-0.000178283
0.00148906
0.0039364
0.00693248
0.00982779
0.0115828
0.0103518
-0.00014174
-0.00125632
-0.000967338
-2.70272e-05
0.00166358
0.00420797
0.00737624
0.0104288
0.0121183
0.00978768
0.00135317
-0.000255194
-5.73603e-05
0.000825313
0.00251389
0.00516857
0.0085281
0.0116989
0.0132038
0.00988092
0.00264716
0.000692418
0.000807283
0.00163571
0.00332599
0.00607189
0.00957115
0.0127965
0.0141212
0.0101394
0.00337671
0.00124754
0.00131503
0.00211195
0.00380427
0.00660076
0.0101646
0.0134034
0.0146248
0.0103393
0.00337663
0.00124747
0.00131496
0.0021119
0.00380423
0.00660072
0.0101646
0.0134033
0.0146248
0.0103393
0.00264692
0.00069219
0.0008071
0.00163557
0.00332587
0.00607179
0.00957107
0.0127964
0.0141211
0.0101394
0.00135275
-0.000255566
-5.76516e-05
0.000825085
0.00251371
0.00516842
0.00852798
0.0116988
0.0132037
0.00988083
-0.000142342
-0.00125682
-0.000967718
-2.73125e-05
0.00166336
0.00420779
0.00737609
0.0104287
0.0121182
0.00978755
-0.00095936
-0.00149644
-0.00113139
-0.000178607
0.00148881
0.00393621
0.00693233
0.00982765
0.0115827
0.0103516
-0.00422998
-0.00488887
-0.00463646
-0.00387667
-0.00234143
0.000309746
0.00412554
0.00851316
0.0118768
0.0110076
-0.00309381
-0.0044853
-0.00431509
-0.00355568
-0.00197217
0.000827902
0.00491035
0.00961911
0.0129224
0.0103904
-0.0010984
-0.00314386
-0.00314352
-0.00256019
-0.00111388
0.00170698
0.00594568
0.0108889
0.0141054
0.0104099
0.000597822
-0.0019066
-0.00206436
-0.00165068
-0.00033906
0.00244148
0.00678994
0.0118517
0.0149571
0.010566
0.00154197
-0.00119309
-0.00144171
-0.00112613
0.000110709
0.00287211
0.00725116
0.012346
0.0153818
0.0106942
0.00154191
-0.00119315
-0.00144176
-0.00112617
0.000110679
0.00287209
0.00725114
0.012346
0.0153818
0.0106941
0.000597632
-0.00190678
-0.0020645
-0.0016508
-0.000339157
0.0024414
0.00678988
0.0118517
0.014957
0.0105659
-0.00109872
-0.00314415
-0.00314375
-0.00256039
-0.00111404
0.00170685
0.00594558
0.0108888
0.0141053
0.0104098
-0.00309423
-0.00448567
-0.00431539
-0.00355592
-0.00197236
0.000827752
0.00491023
0.009619
0.0129223
0.0103903
-0.00423046
-0.00488928
-0.00463679
-0.00387693
-0.00234163
0.000309589
0.00412541
0.00851304
0.0118767
0.0110075
-0.0101767
-0.0108031
-0.0106095
-0.0100925
-0.00879245
-0.00592308
-0.000833428
0.0062205
0.0128709
0.0140205
-0.00872874
-0.0102413
-0.0101574
-0.00966682
-0.00834449
-0.00534829
4.43816e-05
0.00764973
0.0144271
0.0137668
-0.00627954
-0.00861289
-0.00885235
-0.00878124
-0.00791145
-0.005214
0.000168554
0.00818283
0.0152451
0.0138354
-0.00423099
-0.00713642
-0.00766739
-0.00797661
-0.00749861
-0.00505946
0.000250796
0.00847457
0.0156858
0.0139406
-0.00310396
-0.0062948
-0.00698976
-0.00751071
-0.00724124
-0.00491853
0.000310919
0.00859774
0.015859
0.0140043
-0.003104
-0.00629484
-0.00698979
-0.00751074
-0.00724127
-0.00491855
0.000310898
0.00859773
0.015859
0.0140043
-0.00423112
-0.00713655
-0.00766749
-0.0079767
-0.00749869
-0.00505953
0.000250738
0.00847453
0.0156858
0.0139405
-0.00627976
-0.00861309
-0.00885252
-0.0087814
-0.00791159
-0.00521411
0.000168467
0.00818277
0.0152451
0.0138354
-0.00872903
-0.0102415
-0.0101576
-0.009667
-0.00834465
-0.00534841
4.42813e-05
0.00764965
0.014427
0.0137668
-0.010177
-0.0108034
-0.0106097
-0.0100927
-0.00879261
-0.00592321
-0.000833535
0.00622041
0.0128708
0.0140204
-0.0195286
-0.0196172
-0.0191684
-0.0188055
-0.0178047
-0.0147594
-0.00800865
0.00306988
0.0156448
0.0221941
-0.0177657
-0.0189384
-0.0186996
-0.0185013
-0.0177121
-0.0149302
-0.00831159
0.00331062
0.0165268
0.0225625
-0.0149411
-0.0171133
-0.0174512
-0.0180818
-0.0182812
-0.0164215
-0.0102993
0.00182371
0.0160701
0.0226542
-0.0126315
-0.0154807
-0.0163026
-0.0176171
-0.0186034
-0.0174399
-0.0116845
0.000692231
0.0155479
0.0226378
-0.0113803
-0.0145613
-0.0156458
-0.0173216
-0.0187059
-0.0179115
-0.0123187
0.000143894
0.0152535
0.0225993
-0.0113803
-0.0145613
-0.0156458
-0.0173216
-0.0187059
-0.0179115
-0.0123187
0.000143889
0.0152535
0.0225993
-0.0126316
-0.0154808
-0.0163026
-0.0176172
-0.0186034
-0.0174399
-0.0116845
0.000692216
0.0155479
0.0226378
-0.0149413
-0.0171134
-0.0174513
-0.0180819
-0.0182813
-0.0164215
-0.0102994
0.00182369
0.0160701
0.0226542
-0.0177659
-0.0189386
-0.0186997
-0.0185014
-0.0177123
-0.0149303
-0.00831165
0.00331058
0.0165268
0.0225625
-0.0195288
-0.0196174
-0.0191686
-0.0188057
-0.0178048
-0.0147595
-0.00800872
0.00306984
0.0156448
0.0221941
-0.0335126
-0.0313851
-0.0297381
-0.0290405
-0.0282034
-0.0250772
-0.0166771
-0.00038417
0.0212557
0.0398173
-0.0312429
-0.0305421
-0.0293708
-0.0291998
-0.0291203
-0.0271175
-0.0199488
-0.00377058
0.019049
0.039967
-0.0280123
-0.0284736
-0.0282159
-0.0294009
-0.0310192
-0.0308388
-0.0250132
-0.00852729
0.0161128
0.0398414
-0.0254816
-0.0266861
-0.0271159
-0.0293129
-0.0321389
-0.0331513
-0.0281203
-0.0114289
0.0142724
0.0397215
-0.024145
-0.0257021
-0.0264878
-0.0291852
-0.0325786
-0.0341276
-0.0294418
-0.0126752
0.0134672
0.0396445
-0.024145
-0.0257021
-0.0264878
-0.0291852
-0.0325786
-0.0341276
-0.0294419
-0.0126752
0.0134672
0.0396445
-0.0254816
-0.0266862
-0.0271159
-0.029313
-0.0321389
-0.0331514
-0.0281203
-0.0114289
0.0142724
0.0397215
-0.0280124
-0.0284737
-0.028216
-0.029401
-0.0310193
-0.0308389
-0.0250132
-0.00852729
0.0161128
0.0398414
-0.0312431
-0.0305423
-0.029371
-0.0291999
-0.0291204
-0.0271175
-0.0199488
-0.00377059
0.019049
0.039967
-0.0335127
-0.0313852
-0.0297383
-0.0290406
-0.0282036
-0.0250773
-0.0166771
-0.000384184
0.0212557
0.0398173
-0.0561156
-0.0458082
-0.0408887
-0.0385761
-0.0372958
-0.03386
-0.0242433
-0.00203846
0.0310452
0.0737384
-0.0526849
-0.0443292
-0.0403263
-0.0392937
-0.0395749
-0.0383545
-0.0316368
-0.0109736
0.023353
0.0741457
-0.0484947
-0.0414285
-0.0386085
-0.0395139
-0.0421712
-0.0434499
-0.0388573
-0.0181347
0.0185823
0.0754671
-0.0454715
-0.0391445
-0.0371192
-0.0392871
-0.0434813
-0.0462281
-0.0427203
-0.0216848
0.0165171
0.0767196
-0.0439539
-0.0379589
-0.0363263
-0.0390824
-0.0439528
-0.0473109
-0.0442407
-0.0230336
0.0158267
0.0773161
-0.043954
-0.0379589
-0.0363263
-0.0390824
-0.0439529
-0.0473109
-0.0442407
-0.0230336
0.0158267
0.0773162
-0.0454715
-0.0391445
-0.0371193
-0.0392871
-0.0434813
-0.0462281
-0.0427203
-0.0216847
0.0165171
0.0767196
-0.0484948
-0.0414286
-0.0386086
-0.0395139
-0.0421713
-0.0434499
-0.0388573
-0.0181347
0.0185824
0.0754671
-0.052685
-0.0443294
-0.0403264
-0.0392939
-0.0395749
-0.0383546
-0.0316368
-0.0109736
0.023353
0.0741457
-0.0561158
-0.0458084
-0.0408888
-0.0385762
-0.0372959
-0.0338601
-0.0242433
-0.00203846
0.0310452
0.0737384
-0.0879387
-0.0603797
-0.0510281
-0.0451191
-0.0421831
-0.0376513
-0.0253216
0.00531421
0.0518817
0.150897
-0.0802118
-0.0566007
-0.0496923
-0.0461894
-0.0455648
-0.0437653
-0.0352034
-0.00555294
0.0453624
0.162381
-0.0738503
-0.0519211
-0.0465771
-0.0455343
-0.0478196
-0.0487349
-0.0423308
-0.0111026
0.0461385
0.171226
-0.0699337
-0.0487201
-0.0442396
-0.0447013
-0.0487395
-0.0512108
-0.0456863
-0.0131495
0.0472828
0.176779
-0.0681439
-0.0471827
-0.0430951
-0.0442318
-0.0490313
-0.0521529
-0.0469395
-0.0138557
0.0479096
0.179176
-0.0681439
-0.0471827
-0.0430951
-0.0442318
-0.0490313
-0.0521529
-0.0469395
-0.0138557
0.0479096
0.179176
-0.0699338
-0.0487202
-0.0442396
-0.0447013
-0.0487395
-0.0512108
-0.0456863
-0.0131495
0.0472828
0.176779
-0.0738504
-0.0519212
-0.0465772
-0.0455344
-0.0478197
-0.0487349
-0.0423308
-0.0111026
0.0461385
0.171226
-0.080212
-0.0566009
-0.0496924
-0.0461895
-0.0455649
-0.0437653
-0.0352034
-0.00555293
0.0453624
0.162381
-0.0879389
-0.0603798
-0.0510283
-0.0451192
-0.0421831
-0.0376514
-0.0253216
0.00531422
0.0518817
0.150897
-0.198436
-0.0733182
-0.0482029
-0.0394581
-0.0349354
-0.0281765
-0.0114773
0.0333377
0.119143
0.324557
-0.186241
-0.0608412
-0.0406182
-0.0361916
-0.0352318
-0.031753
-0.0175334
0.0300132
0.129445
0.358979
-0.1775
-0.0521711
-0.0341863
-0.0327599
-0.0349539
-0.0339064
-0.0207295
0.0298586
0.138545
0.379649
-0.172485
-0.047265
-0.0302489
-0.0305072
-0.0345611
-0.0348967
-0.022108
0.0301221
0.142991
0.389544
-0.170288
-0.0451389
-0.0285098
-0.0294871
-0.0343542
-0.0353108
-0.0226871
0.0302049
0.144649
0.393293
-0.170288
-0.0451389
-0.0285098
-0.0294871
-0.0343542
-0.0353108
-0.0226871
0.0302049
0.144649
0.393293
-0.172485
-0.047265
-0.0302489
-0.0305073
-0.0345612
-0.0348967
-0.022108
0.0301222
0.142991
0.389544
-0.177501
-0.0521712
-0.0341864
-0.03276
-0.0349539
-0.0339064
-0.0207295
0.0298586
0.138545
0.379649
-0.186241
-0.0608413
-0.0406183
-0.0361916
-0.0352318
-0.031753
-0.0175334
0.0300132
0.129445
0.358979
-0.198436
-0.0733183
-0.0482031
-0.0394582
-0.0349355
-0.0281765
-0.0114773
0.0333378
0.119143
0.324557
)
;

boundaryField
{
    top
    {
        type            zeroGradient;
    }
    others
    {
        type            zeroGradient;
    }
}


// ************************************************************************* //
