/*--------------------------------*- C++ -*----------------------------------*\
  =========                 |
  \\      /  F ield         | OpenFOAM: The Open Source CFD Toolbox
   \\    /   O peration     | Website:  https://openfoam.org
    \\  /    A nd           | Version:  9
     \\/     M anipulation  |
\*---------------------------------------------------------------------------*/
FoamFile
{
    format      ascii;
    class       surfaceScalarField;
    location    "0.44";
    object      phi;
}
// * * * * * * * * * * * * * * * * * * * * * * * * * * * * * * * * * * * * * //

dimensions      [0 3 -1 0 0 0 0];

internalField   nonuniform List<scalar> 
2700
(
-6.96736e-08
-8.83238e-08
1.58039e-07
-3.19914e-07
-9.10422e-08
3.41282e-07
-6.38187e-07
-8.91258e-08
4.07399e-07
-9.41972e-07
-1.07654e-07
4.11439e-07
-1.15168e-06
-1.54018e-07
3.63729e-07
-1.17965e-06
-2.23804e-07
2.51769e-07
-9.63752e-07
-2.94381e-07
7.84837e-08
-5.39195e-07
-3.21677e-07
-1.02881e-07
-1.09766e-07
-2.60888e-07
-1.68541e-07
-8.46489e-08
-2.51173e-08
-1.69783e-07
-1.85553e-07
2.67012e-07
-6.88099e-07
-2.36085e-07
6.63359e-07
-1.32614e-06
-2.4933e-07
7.98245e-07
-1.91321e-06
-2.8398e-07
7.63395e-07
-2.29711e-06
-3.56429e-07
5.86315e-07
-2.32108e-06
-4.57719e-07
2.57886e-07
-1.88039e-06
-5.49749e-07
-1.85325e-07
-1.05703e-06
-5.67562e-07
-5.77474e-07
-2.40448e-07
-4.55933e-07
-6.21538e-07
-1.83677e-07
-1.4142e-07
-2.35742e-07
-1.97292e-07
2.47481e-07
-9.19244e-07
-2.72703e-07
7.20121e-07
-1.74768e-06
-2.95378e-07
8.74481e-07
-2.49695e-06
-3.30034e-07
7.95328e-07
-2.97043e-06
-3.95506e-07
5.12552e-07
-2.97089e-06
-4.84125e-07
2.68645e-08
-2.36823e-06
-5.54653e-07
-5.97754e-07
-1.28877e-06
-5.56626e-07
-1.09039e-06
-2.6112e-07
-4.46455e-07
-1.03713e-06
-1.9689e-07
-2.47907e-07
-2.73852e-07
-1.22984e-07
1.99543e-07
-1.05589e-06
-1.76139e-07
6.85476e-07
-1.99798e-06
-1.92664e-07
8.39378e-07
-2.8425e-06
-2.13395e-07
7.27873e-07
-3.36491e-06
-2.50268e-07
3.7718e-07
-3.33392e-06
-2.98332e-07
-2.16782e-07
-2.6194e-06
-3.35191e-07
-9.3399e-07
-1.37891e-06
-3.31786e-07
-1.46533e-06
-2.40958e-07
-2.66345e-07
-1.31806e-06
-1.22692e-07
-3.15156e-07
-2.91266e-07
2.07594e-12
1.6828e-07
-1.11913e-06
1.60424e-12
6.5172e-07
-2.11434e-06
1.20557e-12
8.0255e-07
-3.00286e-06
9.04797e-13
6.7512e-07
-3.54565e-06
7.10166e-13
2.92522e-07
-3.49711e-06
5.61893e-13
-3.46877e-07
-2.72452e-06
4.16376e-13
-1.10778e-06
-1.40663e-06
3.27041e-13
-1.64968e-06
-2.22586e-07
2.79382e-13
-1.45039e-06
2.67781e-13
-3.45278e-07
-2.91266e-07
1.22989e-07
1.6828e-07
-1.11913e-06
1.76142e-07
6.5172e-07
-2.11434e-06
1.92667e-07
8.0255e-07
-3.00286e-06
2.13397e-07
6.7512e-07
-3.54565e-06
2.50269e-07
2.92522e-07
-3.49711e-06
2.98333e-07
-3.46877e-07
-2.72452e-06
3.35192e-07
-1.10778e-06
-1.40663e-06
3.31786e-07
-1.64968e-06
-2.22586e-07
2.66346e-07
-1.45039e-06
1.22692e-07
-3.45278e-07
-2.73852e-07
1.97297e-07
1.99543e-07
-1.05589e-06
2.72707e-07
6.85477e-07
-1.99798e-06
2.9538e-07
8.39378e-07
-2.8425e-06
3.30036e-07
7.27873e-07
-3.36491e-06
3.95508e-07
3.7718e-07
-3.33392e-06
4.84125e-07
-2.16782e-07
-2.6194e-06
5.54654e-07
-9.3399e-07
-1.37891e-06
5.56626e-07
-1.46533e-06
-2.40958e-07
4.46456e-07
-1.31806e-06
1.96891e-07
-3.15157e-07
-2.35743e-07
1.85559e-07
2.4748e-07
-9.19245e-07
2.36088e-07
7.20121e-07
-1.74768e-06
2.49332e-07
8.74481e-07
-2.49695e-06
2.83982e-07
7.95328e-07
-2.97043e-06
3.5643e-07
5.12552e-07
-2.97089e-06
4.5772e-07
2.68644e-08
-2.36823e-06
5.4975e-07
-5.97755e-07
-1.28877e-06
5.67562e-07
-1.09039e-06
-2.6112e-07
4.55934e-07
-1.03713e-06
1.83677e-07
-2.47907e-07
-1.69786e-07
8.83362e-08
2.67009e-07
-6.88102e-07
9.10461e-08
6.63359e-07
-1.32614e-06
8.91275e-08
7.98245e-07
-1.91321e-06
1.07655e-07
7.63395e-07
-2.29711e-06
1.54018e-07
5.86315e-07
-2.32108e-06
2.23804e-07
2.57885e-07
-1.88039e-06
2.94381e-07
-1.85325e-07
-1.05703e-06
3.21677e-07
-5.77474e-07
-2.40448e-07
2.60888e-07
-6.21538e-07
8.46489e-08
-1.4142e-07
-6.96886e-08
1.58025e-07
-3.19921e-07
3.41279e-07
-6.38191e-07
4.07398e-07
-9.41975e-07
4.11439e-07
-1.15169e-06
3.63729e-07
-1.17965e-06
2.51769e-07
-9.63752e-07
7.84836e-08
-5.39195e-07
-1.02881e-07
-1.09766e-07
-1.68541e-07
-2.51173e-08
-2.25322e-07
-2.34537e-07
6.17897e-07
-7.27184e-07
-2.97269e-07
1.14041e-06
-1.3163e-06
-3.07598e-07
1.30411e-06
-1.86343e-06
-3.19938e-07
1.2785e-06
-2.2381e-06
-3.54663e-07
1.09306e-06
-2.29636e-06
-4.11756e-07
7.21785e-07
-1.93096e-06
-4.67371e-07
1.80454e-07
-1.17209e-06
-4.66772e-07
-3.94977e-07
-3.33289e-07
-3.47909e-07
-6.59432e-07
-6.98222e-08
-2.88585e-07
-5.86172e-07
-4.09593e-07
1.02824e-06
-1.75263e-06
-5.76188e-07
2.10874e-06
-3.07299e-06
-6.11303e-07
2.42231e-06
-4.24192e-06
-6.3631e-07
2.24869e-06
-4.98146e-06
-6.92186e-07
1.66338e-06
-5.02178e-06
-7.75497e-07
6.61947e-07
-4.18053e-06
-8.48582e-07
-6.45366e-07
-2.56245e-06
-8.24535e-07
-1.83779e-06
-8.03874e-07
-6.26189e-07
-2.10184e-06
-1.99577e-07
-8.15539e-07
-8.30241e-07
-4.03555e-07
1.07168e-06
-2.43655e-06
-5.99079e-07
2.34932e-06
-4.21725e-06
-6.44484e-07
2.68836e-06
-5.75047e-06
-6.70345e-07
2.36259e-06
-6.66776e-06
-7.2091e-07
1.45856e-06
-6.64572e-06
-7.93032e-07
2.23552e-08
-5.45545e-06
-8.41212e-07
-1.79539e-06
-3.29016e-06
-8.02546e-07
-3.27767e-06
-1.00758e-06
-6.16833e-07
-3.32907e-06
-2.34343e-07
-1.22072e-06
-9.7224e-07
-2.42909e-07
1.01114e-06
-2.84372e-06
-3.70379e-07
2.32826e-06
-4.89677e-06
-4.01152e-07
2.64909e-06
-6.63509e-06
-4.16585e-07
2.21244e-06
-7.63897e-06
-4.44329e-07
1.10447e-06
-7.54399e-06
-4.82312e-07
-6.22478e-07
-6.12239e-06
-5.03053e-07
-2.69375e-06
-3.6285e-06
-4.75032e-07
-4.28674e-06
-1.0691e-06
-3.68013e-07
-4.12627e-06
-1.5123e-07
-1.46737e-06
-1.03572e-06
1.69342e-12
9.61086e-07
-3.03024e-06
9.25836e-13
2.27586e-06
-5.20894e-06
5.79506e-13
2.5801e-06
-7.03892e-06
4.86758e-13
2.08852e-06
-8.0767e-06
4.98818e-13
8.85967e-07
-7.93772e-06
4.59943e-13
-9.68165e-07
-6.40138e-06
3.70361e-13
-3.14717e-06
-3.75559e-06
3.1737e-13
-4.7705e-06
-1.0803e-06
2.78417e-13
-4.49369e-06
2.49891e-13
-1.57681e-06
-1.03572e-06
2.42912e-07
9.61086e-07
-3.03024e-06
3.7038e-07
2.27586e-06
-5.20894e-06
4.01153e-07
2.5801e-06
-7.03892e-06
4.16586e-07
2.08852e-06
-8.0767e-06
4.4433e-07
8.85967e-07
-7.93772e-06
4.82313e-07
-9.68165e-07
-6.40138e-06
5.03053e-07
-3.14717e-06
-3.75559e-06
4.75032e-07
-4.7705e-06
-1.0803e-06
3.68013e-07
-4.49369e-06
1.51231e-07
-1.57681e-06
-9.72239e-07
4.03558e-07
1.01114e-06
-2.84372e-06
5.99081e-07
2.32826e-06
-4.89676e-06
6.44485e-07
2.64909e-06
-6.63509e-06
6.70346e-07
2.21244e-06
-7.63897e-06
7.2091e-07
1.10447e-06
-7.54399e-06
7.93033e-07
-6.22478e-07
-6.12239e-06
8.41213e-07
-2.69375e-06
-3.6285e-06
8.02546e-07
-4.28674e-06
-1.0691e-06
6.16833e-07
-4.12627e-06
2.34343e-07
-1.46737e-06
-8.30241e-07
4.09596e-07
1.07168e-06
-2.43655e-06
5.76189e-07
2.34932e-06
-4.21725e-06
6.11304e-07
2.68836e-06
-5.75047e-06
6.36311e-07
2.36259e-06
-6.66776e-06
6.92187e-07
1.45856e-06
-6.64572e-06
7.75498e-07
2.2355e-08
-5.45545e-06
8.48583e-07
-1.79539e-06
-3.29016e-06
8.24535e-07
-3.27767e-06
-1.00758e-06
6.2619e-07
-3.32907e-06
1.99578e-07
-1.22072e-06
-5.86172e-07
2.34541e-07
1.02824e-06
-1.75263e-06
2.9727e-07
2.10873e-06
-3.07299e-06
3.07598e-07
2.42231e-06
-4.24192e-06
3.19939e-07
2.24869e-06
-4.98146e-06
3.54663e-07
1.66338e-06
-5.02178e-06
4.11756e-07
6.61947e-07
-4.18053e-06
4.67372e-07
-6.45366e-07
-2.56245e-06
4.66772e-07
-1.83779e-06
-8.03874e-07
3.47909e-07
-2.10184e-06
6.98224e-08
-8.15539e-07
-2.25325e-07
6.17891e-07
-7.27188e-07
1.14041e-06
-1.3163e-06
1.30411e-06
-1.86343e-06
1.2785e-06
-2.2381e-06
1.09306e-06
-2.29636e-06
7.21785e-07
-1.93096e-06
1.80454e-07
-1.17209e-06
-3.94977e-07
-3.33289e-07
-6.59432e-07
-2.88585e-07
-3.37029e-07
-3.63844e-07
1.31877e-06
-1.01128e-06
-4.70615e-07
2.28528e-06
-1.78021e-06
-4.77132e-07
2.55018e-06
-2.50989e-06
-4.60476e-07
2.46866e-06
-3.06161e-06
-4.55654e-07
2.10043e-06
-3.25189e-06
-4.75901e-07
1.38797e-06
-2.89126e-06
-5.06774e-07
3.26599e-07
-1.91693e-06
-5.02652e-07
-8.66658e-07
-6.56692e-07
-3.75613e-07
-1.54405e-06
-3.60661e-08
-9.0921e-07
-9.21274e-07
-6.06877e-07
2.19255e-06
-2.58528e-06
-8.56439e-07
4.15857e-06
-4.41014e-06
-8.79011e-07
4.64905e-06
-6.03664e-06
-8.44251e-07
4.25896e-06
-7.1436e-06
-8.19244e-07
3.13393e-06
-7.37967e-06
-8.22218e-07
1.24433e-06
-6.42696e-06
-8.30818e-07
-1.27403e-06
-4.24597e-06
-7.91083e-07
-3.73035e-06
-1.53215e-06
-6.03752e-07
-4.58752e-06
-1.47667e-07
-2.23609e-06
-1.33376e-06
-5.80328e-07
2.3789e-06
-3.68191e-06
-8.58054e-07
4.69909e-06
-6.19386e-06
-8.87268e-07
5.20856e-06
-8.35e-06
-8.47651e-07
4.52213e-06
-9.71769e-06
-8.0813e-07
2.81514e-06
-9.8681e-06
-7.83173e-07
1.33721e-07
-8.45157e-06
-7.57507e-07
-3.28524e-06
-5.49465e-06
-7.01106e-07
-6.32457e-06
-1.94887e-06
-5.46394e-07
-6.93221e-06
-1.83095e-07
-3.13416e-06
-1.57956e-06
-3.43086e-07
2.35345e-06
-4.34386e-06
-5.19626e-07
4.75413e-06
-7.2601e-06
-5.39206e-07
5.21726e-06
-9.70397e-06
-5.12724e-07
4.32139e-06
-1.11788e-05
-4.82429e-07
2.25361e-06
-1.1223e-05
-4.56507e-07
-9.0497e-07
-9.4928e-06
-4.28374e-07
-4.75306e-06
-6.08386e-06
-3.89899e-07
-8.00689e-06
-2.10894e-06
-3.09043e-07
-8.33855e-06
-1.1905e-07
-3.64035e-06
-1.69029e-06
1.41133e-12
2.30829e-06
-4.64701e-06
6.44035e-13
4.71296e-06
-7.7472e-06
3.08422e-13
5.14108e-06
-1.03149e-05
2.43288e-13
4.14348e-06
-1.18242e-05
3.03864e-13
1.91282e-06
-1.18016e-05
2.84729e-13
-1.4472e-06
-9.91792e-06
2.23e-13
-5.45927e-06
-6.30778e-06
2.03245e-13
-8.77053e-06
-2.15831e-06
1.80386e-13
-8.95221e-06
2.04729e-13
-3.85417e-06
-1.69029e-06
3.43088e-07
2.30829e-06
-4.64701e-06
5.19627e-07
4.71296e-06
-7.7472e-06
5.39207e-07
5.14108e-06
-1.03149e-05
5.12724e-07
4.14348e-06
-1.18242e-05
4.82429e-07
1.91282e-06
-1.18016e-05
4.56507e-07
-1.4472e-06
-9.91792e-06
4.28375e-07
-5.45927e-06
-6.30778e-06
3.89899e-07
-8.77053e-06
-2.15831e-06
3.09043e-07
-8.95221e-06
1.1905e-07
-3.85417e-06
-1.57956e-06
5.80331e-07
2.35345e-06
-4.34386e-06
8.58055e-07
4.75413e-06
-7.2601e-06
8.87268e-07
5.21726e-06
-9.70397e-06
8.47651e-07
4.32139e-06
-1.11788e-05
8.08131e-07
2.25361e-06
-1.1223e-05
7.83174e-07
-9.0497e-07
-9.4928e-06
7.57507e-07
-4.75306e-06
-6.08386e-06
7.01107e-07
-8.00689e-06
-2.10894e-06
5.46394e-07
-8.33855e-06
1.83096e-07
-3.64035e-06
-1.33376e-06
6.06879e-07
2.37889e-06
-3.68191e-06
8.5644e-07
4.69909e-06
-6.19386e-06
8.79011e-07
5.20856e-06
-8.35e-06
8.44252e-07
4.52213e-06
-9.71769e-06
8.19244e-07
2.81514e-06
-9.8681e-06
8.22219e-07
1.33722e-07
-8.45157e-06
8.30819e-07
-3.28524e-06
-5.49465e-06
7.91084e-07
-6.32457e-06
-1.94887e-06
6.03752e-07
-6.93221e-06
1.47667e-07
-3.13416e-06
-9.21274e-07
3.63845e-07
2.19254e-06
-2.58528e-06
4.70615e-07
4.15857e-06
-4.41014e-06
4.77132e-07
4.64905e-06
-6.03664e-06
4.60476e-07
4.25896e-06
-7.1436e-06
4.55655e-07
3.13393e-06
-7.37967e-06
4.75902e-07
1.24433e-06
-6.42696e-06
5.06775e-07
-1.27403e-06
-4.24597e-06
5.02652e-07
-3.73035e-06
-1.53215e-06
3.75613e-07
-4.58752e-06
3.60662e-08
-2.23609e-06
-3.3703e-07
1.31877e-06
-1.01128e-06
2.28528e-06
-1.78021e-06
2.55017e-06
-2.50989e-06
2.46866e-06
-3.06161e-06
2.10043e-06
-3.25189e-06
1.38797e-06
-2.89126e-06
3.26599e-07
-1.91693e-06
-8.66658e-07
-6.56692e-07
-1.54405e-06
-9.0921e-07
-4.30835e-07
-4.87811e-07
2.23742e-06
-1.23681e-06
-6.21302e-07
3.71256e-06
-2.14469e-06
-5.95358e-07
4.05341e-06
-3.05337e-06
-5.09054e-07
3.8864e-06
-3.85256e-06
-4.14809e-07
3.31443e-06
-4.33116e-06
-3.51155e-07
2.21772e-06
-4.16877e-06
-3.35185e-07
4.9939e-07
-3.08463e-06
-3.64099e-07
-1.5867e-06
-1.27071e-06
-3.19773e-07
-3.0382e-06
-7.16004e-09
-2.17276e-06
-1.20932e-06
-7.95774e-07
3.70983e-06
-3.28443e-06
-1.09562e-06
6.70799e-06
-5.5282e-06
-1.05022e-06
7.34768e-06
-7.59522e-06
-8.72675e-07
6.68961e-06
-9.18468e-06
-6.60745e-07
4.96933e-06
-9.88423e-06
-4.7888e-07
2.07161e-06
-9.16845e-06
-3.74122e-07
-1.95087e-06
-6.63218e-06
-3.80172e-07
-6.25054e-06
-2.75926e-06
-3.71085e-07
-8.40914e-06
-7.08479e-08
-4.93165e-06
-1.76969e-06
-7.47811e-07
4.10062e-06
-4.74135e-06
-1.07317e-06
7.64829e-06
-7.86293e-06
-1.0276e-06
8.30752e-06
-1.05957e-05
-8.33434e-07
7.21565e-06
-1.25187e-05
-5.89919e-07
4.6673e-06
-1.31333e-05
-3.58723e-07
6.28206e-07
-1.18998e-05
-2.12664e-07
-4.68021e-06
-8.44132e-06
-2.04829e-07
-9.9584e-06
-3.45661e-06
-2.48356e-07
-1.20396e-05
-9.08575e-08
-6.57076e-06
-2.10563e-06
-4.3693e-07
4.14821e-06
-5.62082e-06
-6.40652e-07
7.8368e-06
-9.24777e-06
-6.12346e-07
8.42896e-06
-1.23175e-05
-4.88105e-07
7.04577e-06
-1.43404e-05
-3.29006e-07
4.01561e-06
-1.48129e-05
-1.74412e-07
-6.16729e-07
-1.32147e-05
-7.2289e-08
-6.49173e-06
-9.24871e-06
-6.68888e-08
-1.21108e-05
-3.73454e-06
-1.11586e-07
-1.39895e-05
-5.75673e-08
-7.40819e-06
-2.25639e-06
1.11879e-12
4.12775e-06
-6.01998e-06
4.42844e-13
7.83589e-06
-9.87065e-06
1.11043e-13
8.37941e-06
-1.30751e-05
4.48177e-14
6.85986e-06
-1.51157e-05
8.72714e-14
3.62439e-06
-1.54932e-05
1.12328e-13
-1.24418e-06
-1.37204e-05
1.43141e-13
-7.30432e-06
-9.54361e-06
1.5745e-13
-1.30142e-05
-3.82863e-06
1.37194e-13
-1.47788e-05
1.93703e-13
-7.74037e-06
-2.25639e-06
4.36932e-07
4.12775e-06
-6.01998e-06
6.40653e-07
7.83589e-06
-9.87065e-06
6.12346e-07
8.37941e-06
-1.30751e-05
4.88105e-07
6.85986e-06
-1.51157e-05
3.29007e-07
3.62439e-06
-1.54932e-05
1.74413e-07
-1.24418e-06
-1.37204e-05
7.22893e-08
-7.30432e-06
-9.54361e-06
6.68891e-08
-1.30142e-05
-3.82863e-06
1.11586e-07
-1.47788e-05
5.75676e-08
-7.74037e-06
-2.10563e-06
7.47812e-07
4.14821e-06
-5.62082e-06
1.07317e-06
7.8368e-06
-9.24777e-06
1.0276e-06
8.42896e-06
-1.23175e-05
8.33435e-07
7.04577e-06
-1.43404e-05
5.8992e-07
4.01561e-06
-1.48129e-05
3.58723e-07
-6.16729e-07
-1.32147e-05
2.12665e-07
-6.49173e-06
-9.24871e-06
2.04829e-07
-1.21108e-05
-3.73454e-06
2.48356e-07
-1.39895e-05
9.08578e-08
-7.40819e-06
-1.76969e-06
7.95775e-07
4.10062e-06
-4.74135e-06
1.09562e-06
7.64829e-06
-7.86293e-06
1.05022e-06
8.30752e-06
-1.05957e-05
8.72675e-07
7.21565e-06
-1.25187e-05
6.60746e-07
4.6673e-06
-1.31333e-05
4.78881e-07
6.28206e-07
-1.18998e-05
3.74122e-07
-4.68021e-06
-8.44132e-06
3.80172e-07
-9.9584e-06
-3.45661e-06
3.71085e-07
-1.20396e-05
7.08481e-08
-6.57076e-06
-1.20932e-06
4.87812e-07
3.70983e-06
-3.28443e-06
6.21302e-07
6.70799e-06
-5.5282e-06
5.95358e-07
7.34768e-06
-7.59522e-06
5.09054e-07
6.68961e-06
-9.18468e-06
4.1481e-07
4.96933e-06
-9.88423e-06
3.51155e-07
2.07161e-06
-9.16845e-06
3.35185e-07
-1.95087e-06
-6.63218e-06
3.641e-07
-6.25054e-06
-2.75926e-06
3.19773e-07
-8.40914e-06
7.1601e-09
-4.93165e-06
-4.30836e-07
2.23741e-06
-1.23681e-06
3.71256e-06
-2.14469e-06
4.05341e-06
-3.05337e-06
3.8864e-06
-3.85256e-06
3.31443e-06
-4.33116e-06
2.21772e-06
-4.16877e-06
4.9939e-07
-3.08463e-06
-1.5867e-06
-1.27071e-06
-3.0382e-06
-2.17276e-06
-5.43811e-07
-6.00094e-07
3.38132e-06
-1.43825e-06
-7.33619e-07
5.34062e-06
-2.41474e-06
-6.2651e-07
5.65641e-06
-3.4615e-06
-3.97954e-07
5.33112e-06
-4.55448e-06
-1.17722e-07
4.52513e-06
-5.5002e-06
1.35168e-07
3.02827e-06
-5.82002e-06
2.50484e-07
5.68732e-07
-4.8596e-06
1.48103e-07
-2.69522e-06
-2.40557e-06
-5.25531e-08
-5.43967e-06
-3.44131e-09
-4.57489e-06
-1.49286e-06
-9.60236e-07
5.56284e-06
-3.87395e-06
-1.26385e-06
9.61931e-06
-6.3869e-06
-1.06492e-06
1.0299e-05
-8.79028e-06
-6.14713e-07
9.30974e-06
-1.08938e-05
-5.50448e-08
7.01021e-06
-1.22947e-05
4.61698e-07
3.146e-06
-1.22499e-05
7.38469e-07
-2.48371e-06
-9.80058e-06
5.84239e-07
-9.13599e-06
-4.7553e-06
1.49718e-07
-1.36567e-05
-1.40047e-08
-9.67639e-06
-2.16398e-06
-8.88709e-07
6.19307e-06
-5.59476e-06
-1.21558e-06
1.10308e-05
-9.1044e-06
-1.01162e-06
1.17639e-05
-1.22306e-05
-5.37648e-07
1.02648e-05
-1.46641e-05
5.71834e-08
6.98856e-06
-1.59413e-05
6.05705e-07
1.76142e-06
-1.53536e-05
8.99846e-07
-5.42935e-06
-1.19809e-05
7.39007e-07
-1.34858e-05
-5.72985e-06
2.65834e-07
-1.84068e-05
-8.30854e-09
-1.23063e-05
-2.55919e-06
-5.13843e-07
6.33253e-06
-6.613e-06
-7.16807e-07
1.13918e-05
-1.06705e-05
-5.90923e-07
1.20658e-05
-1.41161e-05
-2.95632e-07
1.02493e-05
-1.65826e-05
7.4479e-08
6.46481e-06
-1.76238e-05
4.12447e-07
6.17776e-07
-1.66495e-05
5.89275e-07
-7.15549e-06
-1.28269e-05
4.82587e-07
-1.5677e-05
-6.09562e-06
1.86323e-07
-2.06412e-05
-9.4993e-10
-1.35112e-05
-2.73288e-06
8.18483e-13
6.34679e-06
-7.06426e-06
2.55553e-13
1.14505e-05
-1.13528e-05
-5.51761e-14
1.2077e-05
-1.49078e-05
-1.15741e-13
1.01193e-05
-1.73453e-05
-3.71166e-14
6.13638e-06
-1.82386e-05
5.96071e-14
6.15325e-08
-1.70915e-05
1.42241e-13
-7.86217e-06
-1.31093e-05
1.74164e-13
-1.65138e-05
-6.22271e-06
1.93687e-13
-2.1479e-05
2.18126e-13
-1.3964e-05
-2.73288e-06
5.13844e-07
6.34679e-06
-7.06426e-06
7.16807e-07
1.14505e-05
-1.13528e-05
5.90923e-07
1.2077e-05
-1.49078e-05
2.95632e-07
1.01193e-05
-1.73453e-05
-7.44789e-08
6.13638e-06
-1.82386e-05
-4.12447e-07
6.15325e-08
-1.70915e-05
-5.89275e-07
-7.86217e-06
-1.31093e-05
-4.82587e-07
-1.65138e-05
-6.22271e-06
-1.86323e-07
-2.1479e-05
9.50319e-10
-1.3964e-05
-2.55919e-06
8.8871e-07
6.33253e-06
-6.613e-06
1.21558e-06
1.13918e-05
-1.06705e-05
1.01162e-06
1.20658e-05
-1.41161e-05
5.37648e-07
1.02493e-05
-1.65826e-05
-5.71831e-08
6.46481e-06
-1.76238e-05
-6.05705e-07
6.17776e-07
-1.66495e-05
-8.99845e-07
-7.15549e-06
-1.28269e-05
-7.39007e-07
-1.5677e-05
-6.09562e-06
-2.65834e-07
-2.06412e-05
8.30889e-09
-1.35112e-05
-2.16398e-06
9.60237e-07
6.19307e-06
-5.59476e-06
1.26385e-06
1.10308e-05
-9.1044e-06
1.06492e-06
1.17639e-05
-1.22306e-05
6.14714e-07
1.02648e-05
-1.46641e-05
5.50451e-08
6.98856e-06
-1.59413e-05
-4.61697e-07
1.76142e-06
-1.53536e-05
-7.38468e-07
-5.42935e-06
-1.19809e-05
-5.84239e-07
-1.34858e-05
-5.72985e-06
-1.49717e-07
-1.84068e-05
1.40049e-08
-1.23063e-05
-1.49286e-06
6.00095e-07
5.56284e-06
-3.87395e-06
7.33619e-07
9.61931e-06
-6.3869e-06
6.2651e-07
1.0299e-05
-8.79028e-06
3.97955e-07
9.30974e-06
-1.08938e-05
1.17722e-07
7.01021e-06
-1.22947e-05
-1.35168e-07
3.146e-06
-1.22499e-05
-2.50483e-07
-2.48371e-06
-9.80058e-06
-1.48103e-07
-9.13599e-06
-4.7553e-06
5.25533e-08
-1.36567e-05
3.44142e-09
-9.67639e-06
-5.43812e-07
3.38132e-06
-1.43825e-06
5.34061e-06
-2.41474e-06
5.65641e-06
-3.46151e-06
5.33112e-06
-4.55448e-06
4.52513e-06
-5.5002e-06
3.02827e-06
-5.82002e-06
5.68732e-07
-4.8596e-06
-2.69522e-06
-2.40557e-06
-5.43967e-06
-4.57489e-06
-7.57191e-07
-7.00195e-07
4.83871e-06
-1.66548e-06
-7.9243e-07
7.04134e-06
-2.54656e-06
-5.35988e-07
7.07347e-06
-3.57497e-06
-6.91076e-08
6.42864e-06
-4.89562e-06
5.088e-07
5.33698e-06
-6.41414e-06
1.06055e-06
3.48624e-06
-7.54358e-06
1.35934e-06
3.38835e-07
-7.14813e-06
1.12814e-06
-4.21881e-06
-4.23022e-06
4.58678e-07
-8.81627e-06
-6.67502e-08
-8.73836e-06
-1.84527e-06
-1.09239e-06
7.8003e-06
-4.343e-06
-1.3391e-06
1.26637e-05
-6.77533e-06
-8.84627e-07
1.308e-05
-9.13776e-06
-2.40471e-08
1.16271e-05
-1.14776e-05
1.03238e-06
8.82649e-06
-1.35472e-05
2.01004e-06
4.2661e-06
-1.45331e-05
2.49747e-06
-2.63597e-06
-1.29185e-05
2.0755e-06
-1.16979e-05
-7.35313e-06
8.99226e-07
-1.96627e-05
-6.26696e-08
-1.70336e-05
-2.55807e-06
-9.92626e-07
8.65138e-06
-6.1497e-06
-1.26674e-06
1.45501e-05
-9.55971e-06
-8.16654e-07
1.51059e-05
-1.25431e-05
5.12199e-08
1.3173e-05
-1.5036e-05
1.09761e-06
9.41616e-06
-1.67919e-05
2.03159e-06
3.49579e-06
-1.71561e-05
2.4338e-06
-5.00145e-06
-1.47723e-05
1.96087e-06
-1.5755e-05
-8.31054e-06
8.37979e-07
-2.48073e-05
-3.12414e-08
-2.06483e-05
-2.95724e-06
-5.67048e-07
8.86419e-06
-7.17038e-06
-7.38368e-07
1.50766e-05
-1.10783e-05
-4.67041e-07
1.56241e-05
-1.42642e-05
5.80232e-08
1.34284e-05
-1.66277e-05
6.84821e-07
9.24104e-06
-1.80052e-05
1.22837e-06
2.79854e-06
-1.7951e-05
1.42909e-06
-6.20497e-06
-1.52805e-05
1.11905e-06
-1.75056e-05
-8.61832e-06
4.67877e-07
-2.69333e-05
-8.42027e-09
-2.21523e-05
-3.1249e-06
5.55389e-13
8.90465e-06
-7.60281e-06
1.08547e-13
1.519e-05
-1.17037e-05
-1.7266e-13
1.57109e-05
-1.4931e-05
-2.09379e-13
1.34046e-05
-1.71782e-05
-9.00349e-14
9.06838e-06
-1.83619e-05
4.56395e-14
2.47361e-06
-1.81426e-05
1.84383e-13
-6.65236e-06
-1.54155e-05
2.51112e-13
-1.81219e-05
-8.73313e-06
2.6404e-13
-2.76935e-05
2.32984e-13
-2.27056e-05
-3.1249e-06
5.67049e-07
8.90465e-06
-7.60281e-06
7.38368e-07
1.519e-05
-1.17037e-05
4.67041e-07
1.57109e-05
-1.4931e-05
-5.80235e-08
1.34046e-05
-1.71782e-05
-6.84821e-07
9.06838e-06
-1.83619e-05
-1.22837e-06
2.47361e-06
-1.81426e-05
-1.42909e-06
-6.65236e-06
-1.54155e-05
-1.11905e-06
-1.81219e-05
-8.73313e-06
-4.67876e-07
-2.76935e-05
8.42066e-09
-2.27056e-05
-2.95724e-06
9.92627e-07
8.86419e-06
-7.17038e-06
1.26674e-06
1.50766e-05
-1.10783e-05
8.16654e-07
1.56241e-05
-1.42642e-05
-5.12199e-08
1.34284e-05
-1.66277e-05
-1.09761e-06
9.24104e-06
-1.80052e-05
-2.03159e-06
2.79854e-06
-1.7951e-05
-2.4338e-06
-6.20497e-06
-1.52805e-05
-1.96087e-06
-1.75056e-05
-8.61832e-06
-8.37979e-07
-2.69333e-05
3.12418e-08
-2.21523e-05
-2.55807e-06
1.09239e-06
8.65138e-06
-6.1497e-06
1.3391e-06
1.45501e-05
-9.55971e-06
8.84627e-07
1.51059e-05
-1.25431e-05
2.40472e-08
1.3173e-05
-1.5036e-05
-1.03238e-06
9.41616e-06
-1.67919e-05
-2.01004e-06
3.49579e-06
-1.71561e-05
-2.49747e-06
-5.00145e-06
-1.47723e-05
-2.0755e-06
-1.5755e-05
-8.31054e-06
-8.99225e-07
-2.48073e-05
6.26699e-08
-2.06483e-05
-1.84527e-06
7.00196e-07
7.8003e-06
-4.343e-06
7.9243e-07
1.26637e-05
-6.77533e-06
5.35988e-07
1.308e-05
-9.13776e-06
6.91078e-08
1.16271e-05
-1.14776e-05
-5.08799e-07
8.82649e-06
-1.35472e-05
-1.06055e-06
4.2661e-06
-1.45331e-05
-1.35934e-06
-2.63597e-06
-1.29185e-05
-1.12814e-06
-1.16979e-05
-7.35313e-06
-4.58677e-07
-1.96627e-05
6.67503e-08
-1.70336e-05
-7.57191e-07
4.83871e-06
-1.66548e-06
7.04134e-06
-2.54656e-06
7.07347e-06
-3.57497e-06
6.42864e-06
-4.89562e-06
5.33698e-06
-6.41414e-06
3.48624e-06
-7.54358e-06
3.38835e-07
-7.14813e-06
-4.21881e-06
-4.23022e-06
-8.81627e-06
-8.73836e-06
-1.30488e-06
-8.26807e-07
6.9704e-06
-2.02997e-06
-8.39464e-07
8.60589e-06
-2.45192e-06
-3.72267e-07
7.86768e-06
-3.07539e-06
3.94927e-07
6.65718e-06
-4.30128e-06
1.33105e-06
5.23181e-06
-6.24862e-06
2.27188e-06
3.1617e-06
-8.40441e-06
2.858e-06
-3.63381e-07
-9.17588e-06
2.53507e-06
-5.98241e-06
-6.46612e-06
1.20648e-06
-1.27325e-05
-2.72144e-07
-1.49323e-05
-2.53467e-06
-1.22921e-06
1.07374e-05
-4.75206e-06
-1.37802e-06
1.54197e-05
-6.38849e-06
-6.0642e-07
1.49506e-05
-7.8683e-06
6.99888e-07
1.2802e-05
-9.61844e-06
2.26226e-06
9.64542e-06
-1.1741e-05
3.7059e-06
4.95469e-06
-1.3679e-05
4.42447e-06
-2.26445e-06
-1.37212e-05
3.70455e-06
-1.28252e-05
-9.28943e-06
1.60822e-06
-2.44961e-05
-3.78268e-07
-2.62169e-05
-3.18407e-06
-1.08363e-06
1.16899e-05
-6.3971e-06
-1.27377e-06
1.76589e-05
-8.80958e-06
-5.45527e-07
1.74575e-05
-1.06005e-05
7.01456e-07
1.49623e-05
-1.21081e-05
2.15577e-06
1.10303e-05
-1.35231e-05
3.40912e-06
5.20761e-06
-1.46048e-05
3.88753e-06
-3.38284e-06
-1.40863e-05
3.0684e-06
-1.56374e-05
-9.52643e-06
1.21185e-06
-2.89708e-05
-2.99092e-07
-3.02539e-05
-3.51275e-06
-6.07974e-07
1.19013e-05
-7.24954e-06
-7.31935e-07
1.82715e-05
-1.00172e-05
-3.05628e-07
1.81518e-05
-1.18277e-05
4.27057e-07
1.55133e-05
-1.29988e-05
1.26447e-06
1.13034e-05
-1.38616e-05
1.95174e-06
5.11877e-06
-1.44699e-05
2.15702e-06
-3.86617e-06
-1.38541e-05
1.63299e-06
-1.6686e-05
-9.52175e-06
6.05631e-07
-3.06595e-05
-1.48274e-07
-3.18249e-05
-3.63899e-06
3.6813e-13
1.19357e-05
-7.58285e-06
2.60363e-14
1.84019e-05
-1.04703e-05
-2.1905e-13
1.82927e-05
-1.224e-05
-2.30441e-13
1.56014e-05
-1.32203e-05
-1.14079e-13
1.13132e-05
-1.38395e-05
5.84058e-14
5.04448e-06
-1.43017e-05
2.48699e-13
-4.03314e-06
-1.37395e-05
3.41016e-13
-1.70511e-05
-9.5529e-06
3.1831e-13
-3.12744e-05
2.4038e-13
-3.24068e-05
-3.63899e-06
6.07975e-07
1.19357e-05
-7.58285e-06
7.31935e-07
1.84019e-05
-1.04703e-05
3.05627e-07
1.82927e-05
-1.224e-05
-4.27058e-07
1.56014e-05
-1.32203e-05
-1.26447e-06
1.13132e-05
-1.38395e-05
-1.95174e-06
5.04448e-06
-1.43017e-05
-2.15702e-06
-4.03314e-06
-1.37395e-05
-1.63299e-06
-1.70511e-05
-9.5529e-06
-6.05631e-07
-3.12744e-05
1.48274e-07
-3.24068e-05
-3.51275e-06
1.08363e-06
1.19013e-05
-7.24954e-06
1.27377e-06
1.82715e-05
-1.00172e-05
5.45527e-07
1.81518e-05
-1.18277e-05
-7.01456e-07
1.55133e-05
-1.29988e-05
-2.15577e-06
1.13034e-05
-1.38616e-05
-3.40912e-06
5.11877e-06
-1.44699e-05
-3.88753e-06
-3.86617e-06
-1.38541e-05
-3.0684e-06
-1.6686e-05
-9.52175e-06
-1.21185e-06
-3.06595e-05
2.99092e-07
-3.18249e-05
-3.18407e-06
1.22921e-06
1.16899e-05
-6.3971e-06
1.37802e-06
1.76589e-05
-8.80958e-06
6.0642e-07
1.74575e-05
-1.06005e-05
-6.99888e-07
1.49623e-05
-1.21081e-05
-2.26226e-06
1.10303e-05
-1.35231e-05
-3.7059e-06
5.20761e-06
-1.46048e-05
-4.42447e-06
-3.38284e-06
-1.40863e-05
-3.70455e-06
-1.56374e-05
-9.52643e-06
-1.60822e-06
-2.89708e-05
3.78268e-07
-3.02539e-05
-2.53467e-06
8.26808e-07
1.07374e-05
-4.75206e-06
8.39464e-07
1.54197e-05
-6.38849e-06
3.72267e-07
1.49506e-05
-7.8683e-06
-3.94927e-07
1.2802e-05
-9.61844e-06
-1.33105e-06
9.64542e-06
-1.17411e-05
-2.27188e-06
4.95469e-06
-1.3679e-05
-2.858e-06
-2.26445e-06
-1.37212e-05
-2.53507e-06
-1.28252e-05
-9.28943e-06
-1.20648e-06
-2.44961e-05
2.72144e-07
-2.62169e-05
-1.30488e-06
6.9704e-06
-2.02997e-06
8.60589e-06
-2.45192e-06
7.86768e-06
-3.07539e-06
6.65718e-06
-4.30128e-06
5.23181e-06
-6.24862e-06
3.1617e-06
-8.40441e-06
-3.63381e-07
-9.17588e-06
-5.98241e-06
-6.46612e-06
-1.27325e-05
-1.49323e-05
-2.54427e-06
-1.09509e-06
1.06098e-05
-2.42272e-06
-1.07764e-06
9.56198e-06
-1.55464e-06
-4.2558e-07
7.42518e-06
-9.98601e-07
5.86706e-07
5.51444e-06
-1.42278e-06
1.79426e-06
3.86173e-06
-3.19403e-06
3.04745e-06
1.8855e-06
-6.18933e-06
3.98073e-06
-1.34882e-06
-8.67954e-06
3.70014e-06
-7.19234e-06
-7.65891e-06
1.68559e-06
-1.54387e-05
-9.57018e-07
-2.16342e-05
-4.20169e-06
-1.51366e-06
1.53576e-05
-5.08999e-06
-1.64903e-06
1.68793e-05
-4.43715e-06
-6.71976e-07
1.45442e-05
-3.50448e-06
8.80736e-07
1.15752e-05
-3.17625e-06
2.70423e-06
8.40723e-06
-3.9918e-06
4.42754e-06
4.39015e-06
-6.04541e-06
5.44484e-06
-1.67494e-06
-8.24589e-06
4.65939e-06
-1.1584e-05
-7.5245e-06
1.74002e-06
-2.52719e-05
-1.29336e-06
-3.34051e-05
-4.84891e-06
-1.26478e-06
1.62899e-05
-6.47957e-06
-1.45195e-06
1.90924e-05
-6.19459e-06
-5.83109e-07
1.70836e-05
-5.08631e-06
8.0941e-07
1.39253e-05
-3.99567e-06
2.39293e-06
1.02509e-05
-3.60099e-06
3.78616e-06
5.45431e-06
-4.37892e-06
4.4328e-06
-1.59286e-06
-6.11881e-06
3.5381e-06
-1.27762e-05
-6.16039e-06
1.13873e-06
-2.83279e-05
-9.41412e-07
-3.67662e-05
-5.09977e-06
-6.87111e-07
1.64234e-05
-7.08804e-06
-8.10407e-07
1.96183e-05
-6.96714e-06
-3.1882e-07
1.77667e-05
-5.71451e-06
4.69881e-07
1.46002e-05
-4.16609e-06
1.34816e-06
1.07998e-05
-3.12509e-06
2.08347e-06
5.78045e-06
-3.35135e-06
2.36329e-06
-1.57041e-06
-5.09131e-06
1.80426e-06
-1.32122e-05
-5.69378e-06
5.35703e-07
-2.9454e-05
-4.43613e-07
-3.80165e-05
-5.17508e-06
2.33322e-13
1.64236e-05
-7.28548e-06
-4.15205e-14
1.97019e-05
-7.20488e-06
-2.42102e-13
1.78932e-05
-5.86796e-06
-2.46402e-13
1.47343e-05
-4.12262e-06
-1.42491e-13
1.0916e-05
-2.84886e-06
6.67213e-14
5.8542e-06
-2.9385e-06
2.86275e-13
-1.58021e-06
-4.78891e-06
3.76821e-13
-1.33965e-05
-5.63642e-06
3.05474e-13
-2.98912e-05
1.61345e-13
-3.84868e-05
-5.17508e-06
6.87112e-07
1.64236e-05
-7.28548e-06
8.10407e-07
1.97019e-05
-7.20488e-06
3.1882e-07
1.78932e-05
-5.86796e-06
-4.69881e-07
1.47343e-05
-4.12262e-06
-1.34816e-06
1.0916e-05
-2.84886e-06
-2.08347e-06
5.8542e-06
-2.9385e-06
-2.36329e-06
-1.58021e-06
-4.78891e-06
-1.80426e-06
-1.33965e-05
-5.63642e-06
-5.35702e-07
-2.98912e-05
4.43614e-07
-3.84868e-05
-5.09977e-06
1.26478e-06
1.64234e-05
-7.08804e-06
1.45195e-06
1.96183e-05
-6.96714e-06
5.83108e-07
1.77667e-05
-5.71451e-06
-8.0941e-07
1.46002e-05
-4.16609e-06
-2.39293e-06
1.07998e-05
-3.12509e-06
-3.78616e-06
5.78045e-06
-3.35135e-06
-4.4328e-06
-1.5704e-06
-5.09131e-06
-3.5381e-06
-1.32122e-05
-5.69378e-06
-1.13873e-06
-2.9454e-05
9.41412e-07
-3.80165e-05
-4.84891e-06
1.51366e-06
1.62899e-05
-6.47957e-06
1.64903e-06
1.90924e-05
-6.19459e-06
6.71976e-07
1.70836e-05
-5.08631e-06
-8.80736e-07
1.39253e-05
-3.99567e-06
-2.70423e-06
1.02509e-05
-3.60099e-06
-4.42754e-06
5.45431e-06
-4.37892e-06
-5.44484e-06
-1.59286e-06
-6.11881e-06
-4.65939e-06
-1.27762e-05
-6.16039e-06
-1.74002e-06
-2.83279e-05
1.29336e-06
-3.67662e-05
-4.20169e-06
1.09509e-06
1.53576e-05
-5.08999e-06
1.07764e-06
1.68793e-05
-4.43716e-06
4.2558e-07
1.45442e-05
-3.50448e-06
-5.86706e-07
1.15752e-05
-3.17625e-06
-1.79426e-06
8.40723e-06
-3.9918e-06
-3.04745e-06
4.39015e-06
-6.04541e-06
-3.98073e-06
-1.67494e-06
-8.24589e-06
-3.70014e-06
-1.1584e-05
-7.5245e-06
-1.68559e-06
-2.52719e-05
9.57018e-07
-3.34051e-05
-2.54427e-06
1.06098e-05
-2.42272e-06
9.56198e-06
-1.55464e-06
7.42518e-06
-9.98602e-07
5.51444e-06
-1.42278e-06
3.86173e-06
-3.19403e-06
1.8855e-06
-6.18933e-06
-1.34882e-06
-8.67954e-06
-7.19234e-06
-7.65891e-06
-1.54387e-05
-2.16342e-05
-2.70918e-06
-1.84583e-06
1.51648e-05
3.73608e-07
-1.93026e-06
8.40945e-06
4.33594e-06
-1.16668e-06
4.62953e-06
7.17682e-06
-1.44108e-07
2.81766e-06
8.40162e-06
1.07199e-06
1.56494e-06
7.5451e-06
2.36321e-06
3.78803e-07
4.29052e-06
3.56536e-06
-1.6596e-06
-6.39842e-07
3.50856e-06
-5.77054e-06
-3.48232e-06
1.00066e-06
-1.35969e-05
-2.65409e-06
-2.24625e-05
-4.86671e-06
-2.19641e-06
2.05749e-05
-1.01669e-06
-2.60791e-06
1.3707e-05
4.75144e-06
-1.74171e-06
9.35106e-06
9.83609e-06
-3.32263e-07
6.67876e-06
1.35308e-05
1.30996e-06
4.47453e-06
1.51203e-05
2.9752e-06
2.18871e-06
1.37463e-05
4.30692e-06
-1.04254e-06
9.10598e-06
3.9405e-06
-7.37561e-06
3.00182e-06
8.21945e-07
-1.89891e-05
-2.67197e-06
-3.03854e-05
-5.64522e-06
-1.66386e-06
2.14026e-05
-2.02096e-06
-2.11509e-06
1.49754e-05
3.88595e-06
-1.4469e-06
1.08819e-05
9.63147e-06
-3.08006e-07
8.15555e-06
1.44484e-05
1.02339e-06
5.72052e-06
1.7509e-05
2.31437e-06
3.0546e-06
1.75249e-05
3.23518e-06
-5.371e-07
1.34201e-05
2.84922e-06
-7.58003e-06
5.58026e-06
5.50724e-07
-2.02169e-05
-1.65732e-06
-3.22006e-05
-5.83201e-06
-8.57259e-07
2.14488e-05
-2.3549e-06
-1.12563e-06
1.51517e-05
3.53759e-06
-7.71333e-07
1.11986e-05
9.47477e-06
-1.65338e-07
8.52037e-06
1.46917e-05
5.42267e-07
6.06399e-06
1.82743e-05
1.21053e-06
3.30167e-06
1.86967e-05
1.65135e-06
-4.08946e-07