/*--------------------------------*- C++ -*----------------------------------*\
  =========                 |
  \\      /  F ield         | OpenFOAM: The Open Source CFD Toolbox
   \\    /   O peration     | Website:  https://openfoam.org
    \\  /    A nd           | Version:  9
     \\/     M anipulation  |
\*---------------------------------------------------------------------------*/
FoamFile
{
    format      ascii;
    class       volScalarField;
    location    "0.14";
    object      p;
}
// * * * * * * * * * * * * * * * * * * * * * * * * * * * * * * * * * * * * * //

dimensions      [0 2 -2 0 0 0 0];

internalField   nonuniform List<scalar> 
1000
(
3.54096e-08
-0.000261693
0.000602365
0.00236127
0.00488574
0.00791442
0.011007
0.0135875
0.0150744
0.014825
0.000149409
-0.000373683
0.000455832
0.00227388
0.00491608
0.00809543
0.0113538
0.0140559
0.0155264
0.0149056
0.000419755
-0.000246852
0.000556118
0.00239063
0.00509185
0.00837033
0.011736
0.0145028
0.0159381
0.0150681
0.00065126
-8.84728e-05
0.000690766
0.00252678
0.00525539
0.00858242
0.0120018
0.0147977
0.0162088
0.0152099
0.000780364
1.36815e-05
0.000780712
0.00261304
0.00534887
0.00869276
0.0121318
0.014937
0.0163374
0.0152899
0.000780326
1.36509e-05
0.000780691
0.00261303
0.00534886
0.00869276
0.0121318
0.014937
0.0163375
0.0152899
0.000651134
-8.85713e-05
0.0006907
0.00252674
0.00525538
0.00858243
0.0120018
0.0147977
0.0162088
0.0152099
0.000419492
-0.000247042
0.000555994
0.00239056
0.00509183
0.00837034
0.0117361
0.0145029
0.0159382
0.0150682
0.000148937
-0.000374002
0.000455646
0.00227379
0.00491605
0.00809544
0.0113539
0.0140559
0.0155265
0.0149057
-5.87961e-07
-0.000262153
0.000602104
0.00236114
0.00488569
0.00791442
0.011007
0.0135876
0.0150745
0.0148251
0.000146696
-0.000168223
0.000672544
0.00235048
0.00476241
0.00768454
0.0107341
0.0133463
0.0149071
0.0145653
0.000606334
-3.99277e-06
0.00079812
0.00246725
0.00489
0.00784571
0.0109589
0.0136155
0.0151324
0.0143286
0.00108817
0.000297765
0.00105719
0.00270284
0.00512662
0.00811549
0.0112724
0.0139537
0.0154233
0.0143394
0.00142653
0.000545586
0.00127245
0.00289719
0.005317
0.00832173
0.0115034
0.0141962
0.0156356
0.0144044
0.00159608
0.000680995
0.0013914
0.003004
0.00541946
0.00842889
0.0116201
0.0143167
0.0157439
0.0144588
0.00159605
0.000680969
0.00139138
0.00300399
0.00541946
0.00842889
0.0116201
0.0143167
0.0157439
0.0144588
0.00142642
0.000545502
0.00127239
0.00289716
0.005317
0.00832173
0.0115034
0.0141962
0.0156356
0.0144044
0.00108796
0.00029761
0.00105709
0.00270279
0.0051266
0.00811549
0.0112724
0.0139537
0.0154233
0.0143394
0.000605997
-4.23937e-06
0.000797967
0.00246717
0.00488998
0.00784571
0.0109589
0.0136155
0.0151325
0.0143286
0.000146217
-0.000168553
0.000672348
0.00235038
0.00476237
0.00768454
0.0107341
0.0133464
0.0149072
0.0145653
-0.00112853
-0.00155318
-0.000652744
0.00114804
0.00377501
0.00705527
0.0106201
0.0138512
0.0159219
0.0155453
-0.000433613
-0.00125135
-0.000401817
0.00137468
0.00399518
0.00729855
0.0109341
0.0142194
0.0162253
0.015175
0.000262858
-0.000794603
-6.9891e-06
0.00172026
0.00431539
0.00763645
0.011311
0.0146275
0.0165761
0.0151272
0.00073334
-0.00044353
0.000296058
0.00198167
0.0045516
0.0078738
0.0115682
0.0148989
0.0168129
0.0151647
0.000961141
-0.000260254
0.000454647
0.00211726
0.00467174
0.00799025
0.0116907
0.0150261
0.0169276
0.0152083
0.000961113
-0.000260277
0.000454632
0.00211725
0.00467174
0.00799025
0.0116907
0.0150261
0.0169276
0.0152083
0.000733253
-0.0004436
0.00029601
0.00198164
0.00455159
0.00787379
0.0115682
0.0148989
0.0168129
0.0151647
0.000262704
-0.000794724
-7.07113e-06
0.00172021
0.00431536
0.00763644
0.011311
0.0146275
0.0165761
0.0151271
-0.000433841
-0.00125153
-0.000401937
0.00137461
0.00399515
0.00729853
0.010934
0.0142194
0.0162253
0.015175
-0.00112883
-0.0015534
-0.000652891
0.00114796
0.00377497
0.00705525
0.0106201
0.0138512
0.0159219
0.0155453
-0.00401276
-0.00451738
-0.00344692
-0.00135439
0.00173067
0.00572286
0.0103111
0.0148413
0.018082
0.0180149
-0.00303999
-0.00405842
-0.00305282
-0.000993109
0.00208393
0.00611614
0.010802
0.0154356
0.0185994
0.0175692
-0.00207635
-0.0034079
-0.00249469
-0.000521066
0.00249435
0.00649761
0.011256
0.0159589
0.0190775
0.0175143
-0.00143532
-0.00292353
-0.00208474
-0.000185104
0.00277405
0.00675563
0.0115312
0.0162679
0.0193651
0.0175488
-0.00113028
-0.00267671
-0.001877
-1.84287e-05
0.00290706
0.00686987
0.0116478
0.0163971
0.019491
0.0175904
-0.0011303
-0.00267672
-0.00187701
-1.84392e-05
0.00290705
0.00686986
0.0116478
0.0163971
0.019491
0.0175904
-0.00143538
-0.00292359
-0.00208478
-0.000185131
0.00277403
0.0067556
0.0115312
0.0162678
0.0193651
0.0175488
-0.00207647
-0.00340799
-0.00249476
-0.000521114
0.00249431
0.00649757
0.011256
0.0159588
0.0190774
0.0175143
-0.00304015
-0.00405856
-0.00305292
-0.000993176
0.00208388
0.00611608
0.0108019
0.0154356
0.0185994
0.0175691
-0.00401295
-0.00451753
-0.00344703
-0.00135447
0.00173061
0.0057228
0.0103111
0.0148413
0.018082
0.0180149
-0.00910783
-0.0095679
-0.00816365
-0.00561948
-0.00188773
0.00312652
0.00930467
0.016089
0.0216899
0.0229778
-0.00774701
-0.00889405
-0.00759109
-0.0051128
-0.00141178
0.00364357
0.0099448
0.0169466
0.0225289
0.0226401
-0.0064332
-0.00799858
-0.00685238
-0.00453956
-0.000975456
0.00402017
0.010356
0.0175063
0.0231357
0.0227024
-0.00557496
-0.0073498
-0.00632891
-0.00415342
-0.000710108
0.00420381
0.0105426
0.0177759
0.0234531
0.0227831
-0.0051739
-0.00702584
-0.00607052
-0.0039701
-0.000595562
0.00427147
0.0105982
0.0178624
0.0235743
0.0228399
-0.00517392
-0.00702585
-0.00607053
-0.00397012
-0.000595577
0.00427146
0.0105982
0.0178624
0.0235743
0.0228399
-0.00557501
-0.00734984
-0.00632894
-0.00415346
-0.000710144
0.00420377
0.0105426
0.0177759
0.0234531
0.0227831
-0.00643328
-0.00799865
-0.00685244
-0.00453961
-0.000975515
0.00402011
0.0103559
0.0175062
0.0231357
0.0227024
-0.00774711
-0.00889415
-0.00759116
-0.00511286
-0.00141185
0.00364349
0.00994473
0.0169465
0.0225289
0.0226401
-0.00910795
-0.00956801
-0.00816373
-0.00561956
-0.00188781
0.00312643
0.00930461
0.0160889
0.0216899
0.0229778
-0.0173897
-0.0174023
-0.015369
-0.0122124
-0.00775729
-0.00157883
0.00671825
0.0170541
0.0271873
0.0324919
-0.0154517
-0.0164482
-0.0146451
-0.0116889
-0.00739552
-0.00132316
0.00699655
0.0177067
0.0281429
0.0327291
-0.0136642
-0.0152529
-0.0137578
-0.0111587
-0.00721063
-0.00138783
0.00683056
0.0177947
0.0285824
0.0330348
-0.0125265
-0.0144059
-0.0131386
-0.0108092
-0.00712674
-0.00151581
0.00660852
0.0177167
0.0287517
0.0332301
-0.0120068
-0.0139905
-0.0128373
-0.0106469
-0.00710393
-0.00160748
0.00646599
0.0176368
0.0287945
0.0333142
-0.0120068
-0.0139905
-0.0128373
-0.0106469
-0.00710395
-0.00160749
0.00646599
0.0176368
0.0287945
0.0333142
-0.0125265
-0.014406
-0.0131387
-0.0108092
-0.00712677
-0.00151584
0.0066085
0.0177167
0.0287517
0.03323
-0.0136642
-0.0152529
-0.0137578
-0.0111588
-0.00721069
-0.00138789
0.00683053
0.0177947
0.0285824
0.0330348
-0.0154518
-0.0164482
-0.0146452
-0.0116889
-0.0073956
-0.00132323
0.00699651
0.0177067
0.0281429
0.0327291
-0.0173897
-0.0174024
-0.015369
-0.0122125
-0.00775738
-0.00157891
0.0067182
0.0170541
0.0271873
0.0324919
-0.0306879
-0.028873
-0.0254767
-0.0214058
-0.0162062
-0.00899542
0.00158972
0.0168276
0.0347503
0.0500794
-0.0278389
-0.0275416
-0.024776
-0.0212907
-0.0166476
-0.0100422
-5.3458e-05
0.0153464
0.0341074
0.0504729
-0.0253736
-0.025958
-0.0238278
-0.0210896
-0.0172132
-0.0113591
-0.00196336
0.0135918
0.0332669
0.050747
-0.0238636
-0.0248563
-0.0231393
-0.020907
-0.0175721
-0.0122426
-0.0032206
0.0124249
0.0326752
0.0508841
-0.0231932
-0.0243236
-0.0227983
-0.0208098
-0.0177386
-0.0126652
-0.00381267
0.0118781
0.0323986
0.0509211
-0.0231933
-0.0243236
-0.0227983
-0.0208098
-0.0177386
-0.0126652
-0.00381267
0.0118781
0.0323986
0.0509211
-0.0238636
-0.0248563
-0.0231394
-0.020907
-0.0175722
-0.0122426
-0.00322061
0.0124249
0.0326752
0.0508841
-0.0253736
-0.025958
-0.0238279
-0.0210896
-0.0172133
-0.0113592
-0.00196338
0.0135917
0.0332669
0.050747
-0.0278389
-0.0275416
-0.0247761
-0.0212908
-0.0166477
-0.0100422
-5.34901e-05
0.0153464
0.0341074
0.0504729
-0.0306879
-0.028873
-0.0254767
-0.0214059
-0.0162063
-0.00899549
0.00158969
0.0168276
0.0347503
0.0500794
-0.053885
-0.0448116
-0.038263
-0.0324383
-0.0262437
-0.0181467
-0.00565592
0.0153008
0.043913
0.0812498
-0.0496565
-0.0429412
-0.0377776
-0.0332923
-0.0283157
-0.021722
-0.0111956
0.00881371
0.0383596
0.0810725
-0.0461721
-0.0406865
-0.0366924
-0.0335887
-0.0300057
-0.0249007
-0.0158687
0.00380147
0.0348492
0.0812214
-0.0441228
-0.0391564
-0.0358334
-0.0335732
-0.0309214
-0.0267892
-0.0186276
0.000927943
0.0329541
0.0814171
-0.04324
-0.0384316
-0.0353951
-0.0335166
-0.0312981
-0.02762
-0.0198416
-0.000311162
0.0321805
0.0814634
-0.04324
-0.0384316
-0.0353951
-0.0335166
-0.0312981
-0.02762
-0.0198416
-0.000311178
0.0321805
0.0814634
-0.0441228
-0.0391564
-0.0358334
-0.0335732
-0.0309215
-0.0267892
-0.0186276
0.000927911
0.032954
0.0814171
-0.046172
-0.0406865
-0.0366925
-0.0335887
-0.0300057
-0.0249008
-0.0158687
0.00380144
0.0348492
0.0812214
-0.0496564
-0.0429412
-0.0377776
-0.0332923
-0.0283158
-0.021722
-0.0111956
0.00881369
0.0383596
0.0810725
-0.053885
-0.0448116
-0.0382631
-0.0324383
-0.0262438
-0.0181467
-0.00565595
0.0153007
0.0439129
0.0812498
-0.0884918
-0.0630011
-0.0523749
-0.0431296
-0.0351088
-0.0258589
-0.0116143
0.0176614
0.0587655
0.151105
-0.0804318
-0.0597356
-0.0521758
-0.0452296
-0.0389197
-0.0317079
-0.0205324
0.00736579
0.0499152
0.159855
-0.0751062
-0.0563059
-0.0506938
-0.0457557
-0.0413893
-0.0361016
-0.0270223
0.00102147
0.0478621
0.164781
-0.0723068
-0.0540894
-0.0494823
-0.0457113
-0.042598
-0.0385568
-0.0306502
-0.00230852
0.0466441
0.167546
-0.0711587
-0.0530674
-0.0488681
-0.0456059
-0.0430701
-0.0396082
-0.0322295
-0.00375438
0.0460423
0.16862
-0.0711587
-0.0530674
-0.0488681
-0.0456059
-0.0430701
-0.0396082
-0.0322295
-0.00375439
0.0460423
0.16862
-0.0723068
-0.0540894
-0.0494824
-0.0457113
-0.0425981
-0.0385568
-0.0306502
-0.00230854
0.0466441
0.167546
-0.0751062
-0.0563059
-0.0506938
-0.0457558
-0.0413894
-0.0361017
-0.0270223
0.00102145
0.0478621
0.164781
-0.0804317
-0.0597356
-0.0521759
-0.0452297
-0.0389198
-0.0317079
-0.0205324
0.00736577
0.0499152
0.159855
-0.0884918
-0.0630011
-0.0523749
-0.0431297
-0.0351088
-0.0258589
-0.0116143
0.0176613
0.0587655
0.151105
-0.200452
-0.0775388
-0.0520057
-0.0403107
-0.0311145
-0.0200872
-0.00101579
0.0422011
0.122342
0.321203
-0.188728
-0.0665304
-0.0465416
-0.0389722
-0.0326971
-0.0240427
-0.00761239
0.0373726
0.129214
0.350565
-0.181361
-0.0599251
-0.0425409
-0.0376328
-0.0336467
-0.0269194
-0.011799
0.0350378
0.134469
0.366882
-0.177518
-0.0564027
-0.0401195
-0.0366701
-0.0341067
-0.0285346
-0.0140638
0.0336435
0.136499
0.374076
-0.175936
-0.0549115
-0.0390342
-0.0362018
-0.0342807
-0.0292395
-0.0150819
0.0329015
0.137015
0.376565
-0.175936
-0.0549115
-0.0390342
-0.0362018
-0.0342807
-0.0292395
-0.0150819
0.0329015
0.137015
0.376565
-0.177518
-0.0564027
-0.0401195
-0.0366701
-0.0341067
-0.0285347
-0.0140638
0.0336435
0.136499
0.374076
-0.181361
-0.0599251
-0.0425409
-0.0376328
-0.0336467
-0.0269194
-0.011799
0.0350378
0.134469
0.366882
-0.188728
-0.0665303
-0.0465416
-0.0389722
-0.0326972
-0.0240428
-0.00761243
0.0373726
0.129214
0.350565
-0.200452
-0.0775388
-0.0520057
-0.0403107
-0.0311145
-0.0200872
-0.00101578
0.0422011
0.122342
0.321203
)
;

boundaryField
{
    top
    {
        type            zeroGradient;
    }
    others
    {
        type            zeroGradient;
    }
}


// ************************************************************************* //
