/*--------------------------------*- C++ -*----------------------------------*\
  =========                 |
  \\      /  F ield         | OpenFOAM: The Open Source CFD Toolbox
   \\    /   O peration     | Website:  https://openfoam.org
    \\  /    A nd           | Version:  9
     \\/     M anipulation  |
\*---------------------------------------------------------------------------*/
FoamFile
{
    format      ascii;
    class       surfaceScalarField;
    location    "0.14";
    object      phi;
}
// * * * * * * * * * * * * * * * * * * * * * * * * * * * * * * * * * * * * * //

dimensions      [0 3 -1 0 0 0 0];

internalField   nonuniform List<scalar> 
2700
(
-1.32314e-07
-3.59973e-08
1.6831e-07
-4.39298e-07
-1.29778e-08
3.19963e-07
-7.61934e-07
-4.90548e-09
3.27541e-07
-1.01938e-06
-9.43047e-09
2.66872e-07
-1.16181e-06
-2.52136e-08
1.6765e-07
-1.14754e-06
-5.11139e-08
3.68367e-08
-9.51154e-07
-7.76882e-08
-1.18693e-07
-5.92128e-07
-9.33032e-08
-2.65723e-07
-1.87616e-07
-8.04113e-08
-3.241e-07
-1.77937e-08
-1.69823e-07
-2.51763e-07
-5.72305e-08
2.72996e-07
-7.94481e-07
-4.48856e-08
5.74626e-07
-1.3555e-06
-3.42263e-08
5.90335e-07
-1.79011e-06
-3.61629e-08
4.61346e-07
-2.01755e-06
-5.02162e-08
2.52442e-07
-1.97765e-06
-7.31857e-08
-1.78307e-08
-1.63132e-06
-9.71079e-08
-3.26904e-07
-1.01413e-06
-1.08904e-07
-6.01588e-07
-3.27327e-07
-9.20192e-08
-6.75199e-07
-2.9623e-08
-3.15497e-07
-2.87647e-07
-5.12526e-08
2.81669e-07
-9.13035e-07
-5.17175e-08
6.3222e-07
-1.55688e-06
-4.40966e-08
6.53711e-07
-2.05276e-06
-4.22656e-08
5.01988e-07
-2.30936e-06
-4.82659e-08
2.54647e-07
-2.25767e-06
-6.032e-08
-6.45491e-08
-1.85467e-06
-7.30461e-08
-4.27066e-07
-1.14268e-06
-7.80268e-08
-7.42865e-07
-3.58737e-07
-6.57497e-08
-8.10214e-07
-2.66096e-08
-3.61751e-07
-2.92144e-07
-2.89829e-08
2.69874e-07
-9.41796e-07
-3.23799e-08
6.30315e-07
-1.61283e-06
-2.86161e-08
6.55553e-07
-2.12959e-06
-2.65377e-08
5.01031e-07
-2.39647e-06
-2.79497e-08
2.46561e-07
-2.34111e-06
-3.221e-08
-8.34648e-08
-1.91825e-06
-3.68918e-08
-4.59019e-07
-1.17322e-06
-3.82833e-08
-7.84769e-07
-3.58967e-07
-3.24023e-08
-8.47602e-07
-1.49938e-08
-3.70583e-07
-2.90706e-07
3.01538e-12
2.6172e-07
-9.45792e-07
1.49601e-12
6.22705e-07
-1.6243e-06
1.01335e-12
6.49893e-07
-2.14744e-06
7.99455e-13
4.96602e-07
-2.41788e-06
5.64248e-13
2.42492e-07
-2.36181e-06
3.57313e-13
-8.82871e-08
-1.93299e-06
2.24415e-13
-4.65707e-07
-1.17811e-06
1.79342e-13
-7.93172e-07
-3.55917e-07
1.38458e-13
-8.54591e-07
-2.96269e-13
-3.70911e-07
-2.90706e-07
2.89892e-08
2.6172e-07
-9.45792e-07
3.23829e-08
6.22705e-07
-1.6243e-06
2.86181e-08
6.49893e-07
-2.14744e-06
2.65393e-08
4.96602e-07
-2.41789e-06
2.79509e-08
2.42492e-07
-2.36181e-06
3.22107e-08
-8.82873e-08
-1.93299e-06
3.68923e-08
-4.65707e-07
-1.17811e-06
3.82838e-08
-7.93172e-07
-3.55917e-07
3.24026e-08
-8.54591e-07
1.49933e-08
-3.70911e-07
-2.92145e-07
5.12593e-08
2.69875e-07
-9.41797e-07
5.17198e-08
6.30316e-07
-1.61283e-06
4.40987e-08
6.55553e-07
-2.12959e-06
4.22673e-08
5.0103e-07
-2.39647e-06
4.82673e-08
2.46561e-07
-2.34111e-06
6.03209e-08
-8.34653e-08
-1.91825e-06
7.30467e-08
-4.59019e-07
-1.17322e-06
7.80273e-08
-7.84769e-07
-3.58967e-07
6.57502e-08
-8.47603e-07
2.66091e-08
-3.70583e-07
-2.87648e-07
5.72375e-08
2.8167e-07
-9.13036e-07
4.48855e-08
6.32222e-07
-1.55688e-06
3.42279e-08
6.53712e-07
-2.05276e-06
3.61645e-08
5.01988e-07
-2.30936e-06
5.02176e-08
2.54646e-07
-2.25767e-06
7.31867e-08
-6.45497e-08
-1.85467e-06
9.71086e-08
-4.27067e-07
-1.14268e-06
1.08904e-07
-7.42866e-07
-3.58737e-07
9.202e-08
-8.10215e-07
2.96228e-08
-3.61751e-07
-2.5176e-07
3.5998e-08
2.73e-07
-7.94481e-07
1.29745e-08
5.74632e-07
-1.3555e-06
4.90621e-09
5.90338e-07
-1.79011e-06
9.43157e-09
4.61347e-07
-2.01755e-06
2.52148e-08
2.52442e-07
-1.97765e-06
5.11149e-08
-1.78314e-08
-1.63132e-06
7.76889e-08
-3.26904e-07
-1.01413e-06
9.33038e-08
-6.01589e-07
-3.27326e-07
8.04123e-08
-6.752e-07
1.77942e-08
-3.15497e-07
-1.32314e-07
1.68312e-07
-4.39305e-07
3.19966e-07
-7.6194e-07
3.27541e-07
-1.01938e-06
2.66872e-07
-1.16182e-06
1.6765e-07
-1.14754e-06
3.68365e-08
-9.51155e-07
-1.18693e-07
-5.92128e-07
-2.65723e-07
-1.87616e-07
-3.241e-07
-1.69822e-07
-2.91536e-07
-1.05049e-07
5.64896e-07
-8.36062e-07
-8.7755e-08
9.52244e-07
-1.38705e-06
-6.96169e-08
9.48144e-07
-1.81935e-06
-6.14891e-08
7.60663e-07
-2.05515e-06
-6.38852e-08
4.6734e-07
-2.03394e-06
-7.5602e-08
9.12283e-08
-1.70958e-06
-9.1423e-08
-3.51636e-07
-1.10659e-06
-9.65449e-08
-7.72167e-07
-3.98781e-07
-6.8546e-08
-9.63362e-07
1.66616e-08
-5.85265e-07
-6.10399e-07
-1.32871e-07
9.11217e-07
-1.65954e-06
-1.34367e-07
1.67038e-06
-2.69451e-06
-1.13046e-07
1.66874e-06
-3.4805e-06
-9.89547e-08
1.2848e-06
-3.88153e-06
-9.76762e-08
6.87263e-07
-3.80311e-06
-1.08537e-07
-6.33142e-08
-3.17707e-06
-1.22836e-07
-9.21529e-07
-2.05947e-06
-1.24766e-07
-1.69097e-06
-7.63139e-07
-9.15419e-08
-1.94854e-06
-2.41364e-09
-1.05956e-06
-7.22192e-07
-1.03861e-07
9.74852e-07
-1.9607e-06
-1.18209e-07
1.85457e-06
-3.17486e-06
-1.02842e-07
1.85766e-06
-4.08779e-06
-8.92384e-08
1.4052e-06
-4.5439e-06
-8.46628e-08
6.97744e-07
-4.43631e-06
-8.89807e-08
-1.91696e-07
-3.69258e-06
-9.6065e-08
-1.19757e-06
-2.38102e-06
-9.49317e-08
-2.08426e-06
-8.73348e-07
-7.19314e-08
-2.3375e-06
-1.61292e-08
-1.22138e-06
-7.45599e-07
-5.44975e-08
9.6611e-07
-2.04075e-06
-6.61863e-08
1.87344e-06
-3.31189e-06
-5.86536e-08
1.88251e-06
-4.26623e-06
-5.05761e-08
1.41671e-06
-4.74097e-06
-4.67272e-08
6.83367e-07
-4.62436e-06
-4.72733e-08
-2.4179e-07
-3.84139e-06
-4.93845e-08
-1.28866e-06
-2.4652e-06
-4.79683e-08
-2.20792e-06
-8.91916e-07
-3.73111e-08
-2.45551e-06
-1.24799e-08
-1.26615e-06
-7.46464e-07
1.67432e-12
9.53684e-07
-2.05437e-06
-8.13577e-13
1.86443e-06
-3.3405e-06
-8.74906e-13
1.87737e-06
-4.30674e-06
-2.22636e-13
1.41226e-06
-4.7876e-06
9.09824e-14
6.76624e-07
-4.66932e-06
2.39047e-13
-2.53839e-07
-3.87559e-06
3.55978e-13
-1.30883e-06
-2.4813e-06
5.85014e-13
-2.23543e-06
-8.91418e-07
7.38578e-13
-2.48178e-06
3.40671e-13
-1.27481e-06
-7.46463e-07
5.45006e-08
9.53684e-07
-2.05437e-06
6.61843e-08
1.86443e-06
-3.3405e-06
5.86517e-08
1.87737e-06
-4.30674e-06
5.05756e-08
1.41226e-06
-4.7876e-06
4.67274e-08
6.76623e-07
-4.66932e-06
4.72738e-08
-2.53839e-07
-3.87559e-06
4.93852e-08
-1.30883e-06
-2.4813e-06
4.79696e-08
-2.23543e-06
-8.91418e-07
3.73127e-08
-2.48178e-06
1.24806e-08
-1.27481e-06
-7.45599e-07
1.03864e-07
9.6611e-07
-2.04075e-06
1.18206e-07
1.87344e-06
-3.31189e-06
1.0284e-07
1.88251e-06
-4.26623e-06
8.9238e-08
1.41671e-06
-4.74097e-06
8.46632e-08
6.83367e-07
-4.62436e-06
8.89814e-08
-2.41791e-07
-3.84139e-06
9.60659e-08
-1.28867e-06
-2.4652e-06
9.49331e-08
-2.20792e-06
-8.91916e-07
7.19331e-08
-2.45551e-06
1.61298e-08
-1.26615e-06
-7.22189e-07
1.32871e-07
9.74852e-07
-1.9607e-06
1.34362e-07
1.85458e-06
-3.17486e-06
1.13044e-07
1.85767e-06
-4.08778e-06
9.89545e-08
1.4052e-06
-4.5439e-06
9.7677e-08
6.97744e-07
-4.43631e-06
1.08538e-07
-1.91697e-07
-3.69258e-06
1.22837e-07
-1.19757e-06
-2.38102e-06
1.24767e-07
-2.08426e-06
-8.73347e-07
9.1544e-08
-2.3375e-06
2.41466e-09
-1.22138e-06
-6.10394e-07
1.05046e-07
9.11219e-07
-1.65953e-06
8.77508e-08
1.67038e-06
-2.69451e-06
6.96159e-08
1.66874e-06
-3.4805e-06
6.14897e-08
1.2848e-06
-3.88153e-06
6.38864e-08
6.87263e-07
-3.80311e-06
7.5603e-08
-6.3315e-08
-3.17707e-06
9.14241e-08
-9.2153e-07
-2.05947e-06
9.65464e-08
-1.69097e-06
-7.63137e-07
6.8548e-08
-1.94854e-06
-1.66606e-08
-1.05956e-06
-2.91533e-07
5.64891e-07
-8.36062e-07
9.52246e-07
-1.38705e-06
9.48144e-07
-1.81935e-06
7.60663e-07
-2.05516e-06
4.67341e-07
-2.03394e-06
9.12285e-08
-1.70958e-06
-3.51635e-07
-1.10659e-06
-7.72166e-07
-3.98781e-07
-9.6336e-07
-5.85263e-07
-3.96309e-07
-1.63996e-07
1.1252e-06
-1.09816e-06
-1.52433e-07
1.80653e-06
-1.79515e-06
-1.26607e-07
1.77174e-06
-2.34858e-06
-1.06664e-07
1.42076e-06
-2.67514e-06
-9.74213e-08
8.91323e-07
-2.69709e-06
-1.00808e-07
2.13984e-07
-2.33675e-06
-1.13028e-07
-5.98944e-07
-1.57965e-06
-1.15564e-07
-1.41371e-06
-6.10752e-07
-7.69848e-08
-1.85527e-06
3.74879e-08
-1.2335e-06
-8.53025e-07
-2.01456e-07
1.8017e-06
-2.24478e-06
-2.15212e-07
3.12491e-06
-3.59035e-06
-1.83028e-07
3.07073e-06
-4.62009e-06
-1.52344e-07
2.36023e-06
-5.18538e-06
-1.35056e-07
1.29019e-06
-5.16433e-06
-1.34223e-07
-5.09535e-08
-4.43505e-06
-1.4247e-07
-1.62136e-06
-2.99386e-06
-1.4085e-07
-3.10687e-06
-1.18248e-06
-9.77587e-08
-3.73914e-06
1.38577e-08
-2.21841e-06
-1.01859e-06
-1.5233e-07
1.94431e-06
-2.67534e-06
-1.78709e-07
3.47483e-06
-4.26632e-06
-1.54468e-07
3.42008e-06
-5.47021e-06
-1.26882e-07
2.58363e-06
-6.11663e-06
-1.08804e-07
1.31791e-06
-6.06817e-06
-1.0293e-07
-2.71452e-07
-5.19153e-06
-1.04288e-07
-2.11239e-06
-3.48738e-06
-1.0035e-07
-3.82891e-06
-1.3648e-06
-7.26681e-08
-4.48517e-06
-6.27239e-09
-2.56605e-06
-1.05463e-06
-7.79019e-08
1.94632e-06
-2.79025e-06
-9.64691e-08
3.52682e-06
-4.45848e-06
-8.42167e-08
3.48049e-06
-5.71878e-06
-6.85045e-08
2.61863e-06
-6.39288e-06
-5.72322e-08
1.3059e-06
-6.33731e-06
-5.20481e-08
-3.48244e-07
-5.41318e-06
-5.08555e-08
-2.26623e-06
-3.6227e-06
-4.80624e-08
-4.05069e-06
-1.40311e-06
-3.60164e-08
-4.71175e-06
-8.33681e-09
-2.66719e-06
-1.05646e-06
1.31074e-12
1.93224e-06
-2.80918e-06
-1.04046e-12
3.52068e-06
-4.49707e-06
-9.50158e-13
3.48105e-06
-5.7732e-06
-1.84241e-13
2.6199e-06
-6.45637e-06
8.53388e-14
1.30255e-06
-6.40062e-06
1.04065e-13
-3.61629e-07
-5.46459e-06
1.57142e-13
-2.29572e-06
-3.65093e-06
2.41978e-13
-4.09715e-06
-1.40665e-06
1.83978e-13
-4.76208e-06
2.5883e-13
-2.68979e-06
-1.05646e-06
7.79044e-08
1.93224e-06
-2.80918e-06
9.64668e-08
3.52068e-06
-4.49707e-06
8.42147e-08
3.48105e-06
-5.7732e-06
6.8504e-08
2.6199e-06
-6.45637e-06
5.72323e-08
1.30255e-06
-6.40062e-06
5.20483e-08
-3.6163e-07
-5.46459e-06
5.08558e-08
-2.29572e-06
-3.65093e-06
4.80629e-08
-4.09715e-06
-1.40665e-06
3.60168e-08
-4.76208e-06
8.33723e-09
-2.68979e-06
-1.05463e-06
1.52332e-07
1.94632e-06
-2.79025e-06
1.78706e-07
3.52682e-06
-4.45848e-06
1.54466e-07
3.48049e-06
-5.71878e-06
1.26881e-07
2.61863e-06
-6.39288e-06
1.08804e-07
1.3059e-06
-6.33731e-06
1.0293e-07
-3.48245e-07
-5.41318e-06
1.04288e-07
-2.26623e-06
-3.6227e-06
1.00351e-07
-4.05069e-06
-1.40311e-06
7.26686e-08
-4.71175e-06
6.27263e-09
-2.66719e-06
-1.01859e-06
2.01457e-07
1.94431e-06
-2.67534e-06
2.15208e-07
3.47483e-06
-4.26632e-06
1.83026e-07
3.42008e-06
-5.47021e-06
1.52344e-07
2.58363e-06
-6.11663e-06
1.35057e-07
1.31791e-06
-6.06817e-06
1.34223e-07
-2.71453e-07
-5.19153e-06
1.4247e-07
-2.11239e-06
-3.48738e-06
1.40851e-07
-3.82891e-06
-1.3648e-06
9.77592e-08
-4.48517e-06
-1.38578e-08
-2.56605e-06
-8.53022e-07
1.63997e-07
1.8017e-06
-2.24477e-06
1.5243e-07
3.12491e-06
-3.59034e-06
1.26606e-07
3.07073e-06
-4.62009e-06
1.06665e-07
2.36023e-06
-5.18538e-06
9.74221e-08
1.29019e-06
-5.16433e-06
1.00809e-07
-5.09548e-08
-4.43505e-06
1.13028e-07
-1.62136e-06
-2.99386e-06
1.15565e-07
-3.10687e-06
-1.18249e-06
7.69851e-08
-3.73914e-06
-3.74881e-08
-2.21841e-06
-3.96309e-07
1.1252e-06
-1.09816e-06
1.80653e-06
-1.79515e-06
1.77174e-06
-2.34858e-06
1.42076e-06
-2.67514e-06
8.91324e-07
-2.69709e-06
2.13985e-07
-2.33675e-06
-5.98943e-07
-1.57965e-06
-1.41371e-06
-6.10752e-07
-1.85527e-06
-1.2335e-06
-5.21499e-07
-2.32227e-07
1.87893e-06
-1.39867e-06
-2.23741e-07
2.90744e-06
-2.25449e-06
-1.86429e-07
2.81399e-06
-2.95293e-06
-1.52167e-07
2.27137e-06
-3.41879e-06
-1.30391e-07
1.48757e-06
-3.55846e-06
-1.26046e-07
4.79704e-07
-3.2372e-06
-1.39103e-07
-7.81101e-07
-2.33874e-06
-1.47706e-07
-2.16447e-06
-1.00186e-06
-1.05726e-07
-3.08642e-06
4.24998e-08
-2.27786e-06
-1.12211e-06
-2.82229e-07
2.97381e-06
-2.8792e-06
-3.06455e-07
4.96472e-06
-4.55215e-06
-2.57085e-07
4.81433e-06
-5.86605e-06
-2.03214e-07
3.72518e-06
-6.68266e-06
-1.64491e-07
2.14089e-06
-6.85782e-06
-1.47631e-07
1.458e-07
-6.16389e-06
-1.52695e-07
-2.30171e-06
-4.42908e-06
-1.56471e-07
-4.83291e-06
-1.91512e-06
-1.15575e-07
-6.24326e-06
1.67361e-08
-4.10777e-06
-1.33827e-06
-2.10289e-07
3.21064e-06
-3.43326e-06
-2.47695e-07
5.51106e-06
-5.41703e-06
-2.08559e-07
5.35533e-06
-6.95837e-06
-1.59915e-07
4.08166e-06
-7.8975e-06
-1.21754e-07
2.21431e-06
-8.0751e-06
-1.00689e-07
-1.40796e-07
-7.23024e-06
-9.56277e-08
-3.01431e-06
-5.17237e-06
-9.47766e-08
-5.94847e-06
-2.2185e-06
-7.30516e-08
-7.48157e-06
-3.37237e-09
-4.76444e-06
-1.3832e-06
-1.06147e-07
3.22538e-06
-3.57627e-06
-1.31127e-07
5.60331e-06
-5.65644e-06
-1.10662e-07
5.46276e-06
-7.27129e-06
-8.29953e-08
4.15657e-06
-8.25329e-06
-6.01263e-08
2.22627e-06
-8.43593e-06
-4.5917e-08
-2.20373e-07
-7.54695e-06
-4.0546e-08
-3.2103e-06
-5.38616e-06
-3.91303e-08
-6.26712e-06
-2.29396e-06
-3.16001e-08
-7.8454e-06
-6.17148e-09
-4.95835e-06
-1.38397e-06
1.06112e-12
3.21006e-06
-3.59671e-06
-7.81066e-13
5.60229e-06
-5.70043e-06
-6.5596e-13
5.4741e-06
-7.33561e-06
-6.29965e-14
4.17208e-06
-8.33158e-06
-6.91726e-14
2.2384e-06
-8.51953e-06
-2.90017e-13
-2.19596e-07
-7.62204e-06
-4.21943e-13
-3.23376e-06
-5.43558e-06
-5.79635e-13
-6.32273e-06
-2.30785e-06
-5.15514e-13
-7.92141e-06
8.15252e-14
-5.00381e-06
-1.38397e-06
1.0615e-07
3.21006e-06
-3.59671e-06
1.31125e-07
5.6023e-06
-5.70043e-06
1.1066e-07
5.4741e-06
-7.33561e-06
8.29951e-08
4.17208e-06
-8.33158e-06
6.01261e-08
2.2384e-06
-8.51953e-06
4.59163e-08
-2.19596e-07
-7.62204e-06
4.05451e-08
-3.23376e-06
-5.43558e-06
3.91291e-08
-6.32273e-06
-2.30785e-06
3.1599e-08
-7.92141e-06
6.17153e-09
-5.00381e-06
-1.3832e-06
2.10291e-07
3.22538e-06
-3.57627e-06
2.47693e-07
5.60331e-06
-5.65644e-06
2.08557e-07
5.46276e-06
-7.27129e-06
1.59914e-07
4.15657e-06
-8.25329e-06
1.21753e-07
2.22627e-06
-8.43593e-06
1.00688e-07
-2.20373e-07
-7.54695e-06
9.56265e-08
-3.2103e-06
-5.38616e-06
9.47754e-08
-6.26712e-06
-2.29396e-06
7.30505e-08
-7.8454e-06
3.37216e-09
-4.95835e-06
-1.33827e-06
2.8223e-07
3.21064e-06
-3.43326e-06
3.06453e-07
5.51106e-06
-5.41703e-06
2.57084e-07
5.35533e-06
-6.95837e-06
2.03214e-07
4.08166e-06
-7.8975e-06
1.6449e-07
2.21431e-06
-8.0751e-06
1.4763e-07
-1.40797e-07
-7.23024e-06
1.52694e-07
-3.01431e-06
-5.17237e-06
1.5647e-07
-5.94847e-06
-2.2185e-06
1.15574e-07
-7.48157e-06
-1.67367e-08
-4.76444e-06
-1.1221e-06
2.32227e-07
2.97381e-06
-2.8792e-06
2.23739e-07
4.96472e-06
-4.55215e-06
1.86428e-07
4.81433e-06
-5.86605e-06
1.52167e-07
3.72518e-06
-6.68265e-06
1.30391e-07
2.14089e-06
-6.85782e-06
1.26045e-07
1.45799e-07
-6.16389e-06
1.39101e-07
-2.3017e-06
-4.42908e-06
1.47704e-07
-4.83291e-06
-1.91512e-06
1.05725e-07
-6.24326e-06
-4.25006e-08
-4.10777e-06
-5.21499e-07
1.87892e-06
-1.39867e-06
2.90744e-06
-2.25449e-06
2.81399e-06
-2.95293e-06
2.27137e-06
-3.41879e-06
1.48757e-06
-3.55846e-06
4.79704e-07
-3.23721e-06
-7.81101e-07
-2.33874e-06
-2.16447e-06
-1.00186e-06
-3.08642e-06
-2.27786e-06
-7.26589e-07
-3.23796e-07
2.92931e-06
-1.83212e-06
-3.12603e-07
4.32558e-06
-2.87317e-06
-2.50226e-07
4.10527e-06
-3.74849e-06
-1.86038e-07
3.33271e-06
-4.41834e-06
-1.36624e-07
2.29405e-06
-4.78376e-06
-1.11532e-07
9.56657e-07
-4.63502e-06
-1.14128e-07
-8.15706e-07
-3.66018e-06
-1.3666e-07
-3.00266e-06
-1.79946e-06
-1.20602e-07
-4.82654e-06
1.9342e-08
-4.09667e-06
-1.52641e-06
-3.87277e-07
4.5637e-06
-3.75044e-06
-4.16655e-07
7.2928e-06
-5.8094e-06
-3.3175e-07
6.95481e-06
-7.47267e-06
-2.32405e-07
5.43481e-06
-8.65886e-06
-1.4932e-07
3.33978e-06
-9.20465e-06
-9.60629e-08
6.76126e-07
-8.76773e-06
-8.25277e-08
-2.77022e-06
-6.83931e-06
-9.98734e-08
-6.79811e-06
-3.34101e-06
-1.00335e-07
-9.76184e-06
-1.30796e-09
-7.42812e-06
-1.80389e-06
-2.83849e-07
4.9111e-06
-4.45121e-06
-3.29119e-07
8.07085e-06
-6.8973e-06
-2.60464e-07
7.73013e-06
-8.85438e-06
-1.72382e-07
5.97872e-06
-1.02231e-05
-9.49873e-08
3.52873e-06
-1.08264e-05
-4.10831e-08
4.0745e-07
-1.02648e-05
-1.99402e-08
-3.6385e-06
-7.96734e-06
-2.86981e-08
-8.31707e-06
-3.8628e-06
-4.26226e-08
-1.16438e-05
-1.17268e-08
-8.61682e-06
-1.85569e-06
-1.41447e-07
4.93867e-06
-4.6202e-06
-1.71411e-07
8.21012e-06
-7.18351e-06
-1.35133e-07
7.90074e-06
-9.23521e-06
-8.58515e-08
6.12174e-06
-1.06684e-05
-4.14449e-08
3.60593e-06
-1.1302e-05
-9.72069e-09
3.8182e-07
-1.0714e-05
5.03329e-09
-3.82324e-06
-8.30684e-06
1.05123e-09
-8.70403e-06
-4.01132e-06
-1.04641e-08
-1.21731e-05
-7.2962e-09
-8.9741e-06
-1.85285e-06
7.51366e-13
4.92146e-06
-4.63774e-06
-5.85575e-13
8.21578e-06
-7.22803e-06
-5.36484e-13
7.92925e-06
-9.30564e-06
-2.01943e-13
6.16385e-06
-1.0761e-05
-3.64935e-13
3.6523e-06
-1.14098e-05
-4.97986e-13
4.19451e-07
-1.08241e-05
-4.25447e-13
-3.81437e-06
-8.39457e-06
-2.75889e-13
-8.75122e-06
-4.04962e-06
3.35365e-13
-1.22768e-05
3.63665e-13
-9.06073e-06
-1.85285e-06
1.41449e-07
4.92146e-06
-4.63774e-06
1.7141e-07
8.21578e-06
-7.22803e-06
1.35132e-07
7.92925e-06
-9.30564e-06
8.58511e-08
6.16385e-06
-1.0761e-05
4.14441e-08
3.6523e-06
-1.14098e-05
9.71962e-09
4.19451e-07
-1.08241e-05
-5.0342e-09
-3.81437e-06
-8.39457e-06
-1.05194e-09
-8.75122e-06
-4.04962e-06
1.04645e-08
-1.22768e-05
7.29684e-09
-9.06073e-06
-1.85569e-06
2.8385e-07
4.93867e-06
-4.6202e-06
3.29118e-07
8.21012e-06
-7.18351e-06
2.60463e-07
7.90074e-06
-9.23521e-06
1.72381e-07
6.12174e-06
-1.06684e-05
9.49862e-08
3.60593e-06
-1.1302e-05
4.10817e-08
3.8182e-07
-1.0714e-05
1.99394e-08
-3.82324e-06
-8.30684e-06
2.86977e-08
-8.70403e-06
-4.01132e-06
4.2623e-08
-1.21731e-05
1.17273e-08
-8.9741e-06
-1.80389e-06
3.87277e-07
4.9111e-06
-4.45121e-06
4.16654e-07
8.07085e-06
-6.8973e-06
3.3175e-07
7.73013e-06
-8.85437e-06
2.32404e-07
5.97871e-06
-1.02231e-05
1.49319e-07
3.52873e-06
-1.08264e-05
9.60611e-08
4.0745e-07
-1.02648e-05
8.25269e-08
-3.6385e-06
-7.96734e-06
9.98733e-08
-8.31707e-06
-3.8628e-06
1.00335e-07
-1.16438e-05
1.30828e-09
-8.61682e-06
-1.52641e-06
3.23796e-07
4.5637e-06
-3.75044e-06
3.12602e-07
7.2928e-06
-5.8094e-06
2.50226e-07
6.95481e-06
-7.47267e-06
1.86038e-07
5.43481e-06
-8.65886e-06
1.36623e-07
3.33978e-06
-9.20465e-06
1.1153e-07
6.76126e-07
-8.76773e-06
1.14127e-07
-2.77022e-06
-6.83931e-06
1.3666e-07
-6.79811e-06
-3.341e-06
1.20602e-07
-9.76184e-06
-1.93413e-08
-7.42812e-06
-7.26589e-07
2.92931e-06
-1.83212e-06
4.32557e-06
-2.87318e-06
4.10527e-06
-3.74849e-06
3.33271e-06
-4.41834e-06
2.29404e-06
-4.78376e-06
9.56656e-07
-4.63502e-06
-8.15707e-07
-3.66018e-06
-3.00266e-06
-1.79946e-06
-4.82654e-06
-4.09667e-06
-1.09144e-06
-4.5189e-07
4.47264e-06
-2.46594e-06
-4.19398e-07
6.11947e-06
-3.66115e-06
-2.95498e-07
5.59598e-06
-4.68332e-06
-1.59814e-07
4.5147e-06
-5.58093e-06
-3.74488e-08
3.2291e-06
-6.29601e-06
5.51837e-08
1.61656e-06
-6.54686e-06
1.06572e-07
-6.71433e-07
-5.72877e-06
7.81417e-08
-3.89889e-06
-3.30468e-06
3.00292e-09
-7.25363e-06
-4.42021e-08
-7.35714e-06
-2.17657e-06
-5.2716e-07
6.81554e-06
-4.95671e-06
-5.44546e-07
1.01981e-05
-7.36838e-06
-3.81542e-07
9.45253e-06
-9.3284e-06
-1.85473e-07
7.42049e-06
-1.08909e-05
-4.29719e-09
4.86911e-06
-1.19505e-05
1.42636e-07
1.64825e-06
-1.20642e-05
2.31963e-07
-2.78186e-06
-1.02742e-05
2.0561e-07
-8.71561e-06
-5.74837e-06
7.01949e-08
-1.43548e-05
-5.47062e-08
-1.3166e-05
-2.52714e-06
-3.77928e-07
7.28901e-06
-5.82611e-06
-4.21211e-07
1.12465e-05
-8.70104e-06
-2.93119e-07
1.05166e-05
-1.10115e-05
-1.28674e-07
8.23239e-06
-1.28053e-05
2.68276e-08
5.29144e-06
-1.39521e-05
1.54522e-07
1.54232e-06
-1.39694e-05
2.30448e-07
-3.61964e-06
-1.1789e-05
2.11374e-07
-1.05033e-05
-6.52184e-06
9.27486e-08
-1.69335e-05
-3.30083e-08
-1.51604e-05
-2.58047e-06
-1.85425e-07
7.32663e-06
-6.01235e-06
-2.16232e-07
1.1437e-05
-9.0231e-06
-1.49894e-07
1.07683e-05
-1.14468e-05
-6.11465e-08
8.47794e-06
-1.33257e-05
2.39913e-08
5.48765e-06
-1.45214e-05
9.39114e-08
1.6381e-06
-1.45384e-05
1.33931e-07
-3.70969e-06
-1.22595e-05
1.23358e-07
-1.08949e-05
-6.76664e-06
5.90479e-08
-1.76323e-05
-1.21342e-08
-1.57616e-05
-2.56946e-06
4.76099e-13
7.3055e-06
-6.01865e-06
-3.26859e-13
1.14487e-05
-9.05812e-06
-3.91508e-13
1.08188e-05
-1.15133e-05
-2.95238e-13
8.55784e-06
-1.34233e-05
-4.71411e-13
5.58628e-06
-1.46483e-05
-2.92875e-13
1.73837e-06
-1.4686e-05
2.49816e-13
-3.64267e-06
-1.23973e-05
4.18884e-13
-1.09166e-05
-6.8451e-06
5.03514e-13
-1.777e-05
3.81663e-13
-1.5918e-05
-2.56946e-06
1.85426e-07
7.3055e-06
-6.01865e-06
2.16231e-07
1.14487e-05
-9.05812e-06
1.49893e-07
1.08188e-05
-1.15133e-05
6.11459e-08
8.55784e-06
-1.34233e-05
-2.39922e-08
5.58628e-06
-1.46483e-05
-9.39119e-08
1.73837e-06
-1.4686e-05
-1.33931e-07
-3.64267e-06
-1.23973e-05
-1.23358e-07
-1.09166e-05
-6.8451e-06
-5.9047e-08
-1.777e-05
1.21349e-08
-1.5918e-05
-2.58047e-06
3.77929e-07
7.32663e-06
-6.01235e-06
4.2121e-07
1.1437e-05
-9.0231e-06
2.93118e-07
1.07683e-05
-1.14468e-05
1.28673e-07
8.47794e-06
-1.33257e-05
-2.68287e-08
5.48765e-06
-1.45214e-05
-1.54523e-07
1.6381e-06
-1.45384e-05
-2.30447e-07
-3.70969e-06
-1.22595e-05
-2.11372e-07
-1.08949e-05
-6.76664e-06
-9.27475e-08
-1.76323e-05
3.30088e-08
-1.57616e-05
-2.52714e-06
5.27161e-07
7.28901e-06
-5.82611e-06
5.44546e-07
1.12465e-05
-8.70103e-06
3.81542e-07
1.05166e-05
-1.10115e-05
1.85472e-07
8.23238e-06
-1.28053e-05
4.29601e-09
5.29144e-06
-1.39521e-05
-1.42637e-07
1.54233e-06
-1.39694e-05
-2.31962e-07
-3.61964e-06
-1.1789e-05
-2.05608e-07
-1.05033e-05
-6.52185e-06
-7.01936e-08
-1.69335e-05
5.4706e-08
-1.51604e-05
-2.17657e-06
4.5189e-07
6.81554e-06
-4.9567e-06
4.19398e-07
1.01981e-05
-7.36838e-06
2.95499e-07
9.45253e-06
-9.3284e-06
1.59814e-07
7.42049e-06
-1.08909e-05
3.74476e-08
4.86911e-06
-1.19505e-05
-5.51846e-08
1.64825e-06
-1.20642e-05
-1.06571e-07
-2.78186e-06
-1.02742e-05
-7.81399e-08
-8.71561e-06
-5.74837e-06
-3.001e-09
-1.43548e-05
4.42027e-08
-1.3166e-05
-1.09144e-06
4.47264e-06
-2.46594e-06
6.11947e-06
-3.66115e-06
5.59598e-06
-4.68332e-06
4.5147e-06
-5.58093e-06
3.2291e-06
-6.29602e-06
1.61656e-06
-6.54686e-06
-6.71433e-07
-5.72877e-06
-3.89889e-06
-3.30468e-06
-7.25363e-06
-7.35714e-06
-1.79798e-06
-6.34359e-07
6.90498e-06
-3.33776e-06
-5.40528e-07
8.19979e-06
-4.44128e-06
-2.76442e-07
6.97594e-06
-5.37522e-06
1.00011e-08
5.43864e-06
-6.34108e-06
2.82111e-07
3.91285e-06
-7.4026e-06
5.47077e-07
2.131e-06
-8.30127e-06
7.69846e-07
-5.42616e-07
-8.12404e-06
7.76095e-07
-4.85222e-06
-5.5029e-06
4.54025e-07
-1.03288e-05
-1.08903e-07
-1.27511e-05
-3.26661e-06
-7.15616e-07
1.01634e-05
-6.47383e-06
-6.86093e-07
1.35509e-05
-8.82653e-06
-3.64899e-07
1.18937e-05
-1.06088e-05
1.54264e-08
9.19738e-06
-1.21245e-05
3.87639e-07
6.27924e-06
-1.34504e-05
7.39401e-07
2.78178e-06
-1.42173e-05
1.01147e-06
-2.25658e-06
-1.31778e-05
1.0066e-06
-9.98563e-06
-8.47761e-06
5.74077e-07
-1.9175e-05
-1.22925e-07
-2.16296e-05
-3.68752e-06
-4.98873e-07
1.07598e-05
-7.48992e-06
-5.22246e-07
1.4885e-05
-1.03282e-05
-2.85734e-07
1.32758e-05
-1.24258e-05
1.16885e-08
1.03337e-05
-1.40902e-05
3.0703e-07
7.0365e-06
-1.53985e-05
5.77979e-07
3.01201e-06
-1.59808e-05
7.68549e-07
-2.79441e-06
-1.45491e-05
7.46768e-07
-1.16752e-05
-9.2074e-06
4.13553e-07
-2.21146e-05
-7.18996e-08
-2.44188e-05
-3.72865e-06
-2.40376e-07
1.07968e-05
-7.66521e-06
-2.65415e-07
1.51167e-05
-1.0641e-05
-1.47948e-07
1.36062e-05
-1.28437e-05
5.34462e-09
1.06871e-05
-1.45742e-05
1.58863e-07
7.36631e-06
-1.59119e-05
2.96305e-07
3.2575e-06
-1.64899e-05
3.86066e-07
-2.74929e-06
-1.49935e-05
3.68203e-07
-1.20127e-05
-9.48071e-06
2.02108e-07
-2.29336e-05
-2.57646e-08
-2.52885e-05
-3.70221e-06
1.59239e-13
1.07673e-05
-7.6458e-06
-2.11626e-13
1.51269e-05
-1.06471e-05
-5.97938e-13
1.36722e-05
-1.28816e-05
-8.5125e-13
1.07977e-05
-1.46454e-05
-8.07273e-13
7.50895e-06
-1.60208e-05
-1.72285e-13
3.41009e-06
-1.66375e-05
2.23716e-13
-2.63995e-06
-1.51583e-05
-2.3823e-13
-1.20276e-05
-9.59885e-06
-6.72125e-13
-2.31273e-05
1.28591e-13
-2.55426e-05
-3.70221e-06
2.40376e-07
1.07673e-05
-7.6458e-06
2.65415e-07
1.51269e-05
-1.06471e-05
1.47947e-07
1.36722e-05
-1.28816e-05
-5.34638e-09
1.07977e-05
-1.46454e-05
-1.58864e-07
7.50895e-06
-1.60208e-05
-2.96305e-07
3.41009e-06
-1.66375e-05
-3.86066e-07
-2.63995e-06
-1.51583e-05
-3.68203e-07
-1.20276e-05
-9.59885e-06
-2.02109e-07
-2.31273e-05
2.5765e-08
-2.55426e-05
-3.72865e-06
4.98874e-07
1.07968e-05
-7.66521e-06
5.22245e-07
1.51167e-05
-1.0641e-05
2.85733e-07
1.36062e-05
-1.28437e-05
-1.16904e-08
1.06871e-05
-1.45742e-05
-3.07032e-07
7.36631e-06
-1.59119e-05
-5.77979e-07
3.2575e-06
-1.64899e-05
-7.68548e-07
-2.74929e-06
-1.49935e-05
-7.46768e-07
-1.20127e-05
-9.48071e-06
-4.13554e-07
-2.29336e-05
7.18991e-08
-2.52885e-05
-3.68752e-06
7.15616e-07
1.07598e-05
-7.48992e-06
6.86094e-07
1.4885e-05
-1.03282e-05
3.64899e-07
1.32758e-05
-1.24258e-05
-1.54282e-08
1.03337e-05
-1.40902e-05
-3.87641e-07
7.0365e-06
-1.53985e-05
-7.39402e-07
3.01202e-06
-1.59808e-05
-1.01147e-06
-2.79441e-06
-1.45491e-05
-1.0066e-06
-1.16752e-05
-9.2074e-06
-5.74078e-07
-2.21146e-05
1.22923e-07
-2.44188e-05
-3.26662e-06
6.3436e-07
1.01634e-05
-6.47383e-06
5.4053e-07
1.35509e-05
-8.82653e-06
2.76442e-07
1.18937e-05
-1.06088e-05
-1.00025e-08
9.19738e-06
-1.21245e-05
-2.82113e-07
6.27924e-06
-1.34504e-05
-5.47077e-07
2.78178e-06
-1.42173e-05
-7.69844e-07
-2.25658e-06
-1.31778e-05
-7.76094e-07
-9.98563e-06
-8.47761e-06
-4.54025e-07
-1.9175e-05
1.08903e-07
-2.16296e-05
-1.79798e-06
6.90498e-06
-3.33776e-06
8.19978e-06
-4.44128e-06
6.97593e-06
-5.37522e-06
5.43864e-06
-6.34108e-06
3.91285e-06
-7.40261e-06
2.131e-06
-8.30127e-06
-5.42616e-07
-8.12404e-06
-4.85222e-06
-5.50291e-06
-1.03288e-05
-1.27511e-05
-3.13545e-06
-8.88853e-07
1.09293e-05
-4.06692e-06
-6.88084e-07
9.81934e-06
-4.22748e-06
-1.87724e-07
7.32422e-06
-4.36247e-06
3.23619e-07
5.25001e-06
-4.85259e-06
8.07763e-07
3.59522e-06
-5.90823e-06
1.3184e-06
1.86824e-06
-7.4821e-06
1.82561e-06
-7.94358e-07
-8.57513e-06
1.94173e-06
-5.70092e-06
-7.10453e-06
1.24723e-06
-1.30466e-05
-3.6303e-07
-1.94926e-05
-5.22947e-06
-9.71732e-07
1.54758e-05
-7.63208e-06
-8.69152e-07
1.61345e-05
-8.38638e-06
-3.05706e-07
1.2766e-05
-8.5639e-06
3.24054e-07
9.37446e-06
-8.78557e-06
9.44425e-07
6.36425e-06
-9.37782e-06
1.56684e-06
3.12559e-06
-1.03507e-05
2.11229e-06
-1.57041e-06
-1.07992e-05
2.15138e-06
-9.74676e-06
-8.42343e-06
1.21919e-06
-2.15228e-05
-4.4531e-07
-2.99707e-05
-5.74332e-06
-6.58922e-07
1.61903e-05
-8.68876e-06
-6.56834e-07
1.76182e-05
-9.73923e-06
-2.71606e-07
1.42922e-05
-9.94958e-06
1.93814e-07
1.06743e-05
-9.96825e-06
6.59508e-07
7.34009e-06
-1.01725e-05
1.11152e-06
3.67162e-06
-1.06692e-05
1.46744e-06
-1.65289e-06
-1.07787e-05
1.44384e-06
-1.08582e-05
-8.28304e-06
7.69292e-07
-2.41604e-05
-2.70337e-07
-3.28768e-05
-5.7626e-06
-3.11984e-07
1.62125e-05
-8.80185e-06
-3.32353e-07
1.78315e-05
-9.93807e-06
-1.505e-07
1.46213e-05
-1.0179e-05
8.01111e-08
1.10417e-05
-1.0167e-05
3.14054e-07
7.69973e-06
-1.02998e-05
5.35568e-07
3.96632e-06
-1.07347e-05
6.9778e-07
-1.54478e-06
-1.08554e-05
6.72257e-07
-1.11205e-05
-8.39124e-06
3.53098e-07
-2.49815e-05
-1.04374e-07
-3.38457e-05
-5.71392e-06
-3.95712e-13
1.61693e-05
-8.73775e-06
-7.079e-13
1.78184e-05
-9.88524e-06
-1.33393e-12
1.46691e-05
-1.01443e-05
-1.65107e-12
1.11369e-05
-1.01493e-05
-1.11275e-12
7.828e-06
-1.03064e-05
1.58038e-13
4.10276e-06
-1.07871e-05
5.80315e-13
-1.46152e-06
-1.09731e-05
-4.1803e-13
-1.11693e-05
-8.51927e-06
2.17799e-13
-2.5228e-05
3.47301e-13
-3.41662e-05
-5.71392e-06
3.11983e-07
1.61693e-05
-8.73775e-06
3.32352e-07
1.78184e-05
-9.88524e-06
1.50498e-07
1.46691e-05
-1.01443e-05
-8.01144e-08
1.11369e-05
-1.01493e-05
-3.14057e-07
7.828e-06
-1.03064e-05
-5.35568e-07
4.10276e-06
-1.07871e-05
-6.97779e-07
-1.46152e-06
-1.09731e-05
-6.72258e-07
-1.11693e-05
-8.51927e-06
-3.53098e-07
-2.5228e-05
1.04374e-07
-3.41662e-05
-5.7626e-06
6.58921e-07
1.62125e-05
-8.80185e-06
6.56833e-07
1.78315e-05
-9.93807e-06
2.71604e-07
1.46213e-05
-1.0179e-05
-1.93817e-07
1.10417e-05
-1.0167e-05
-6.5951e-07
7.69973e-06
-1.02998e-05
-1.11152e-06
3.96632e-06
-1.07347e-05
-1.46744e-06
-1.54478e-06
-1.08554e-05
-1.44384e-06
-1.11205e-05
-8.39123e-06
-7.69292e-07
-2.49815e-05
2.70336e-07
-3.38457e-05
-5.74332e-06
9.71732e-07
1.61903e-05
-8.68876e-06
8.69152e-07
1.76182e-05
-9.73923e-06
3.05705e-07
1.42922e-05
-9.94957e-06
-3.24057e-07
1.06743e-05
-9.96825e-06
-9.44426e-07
7.34009e-06
-1.01725e-05
-1.56684e-06
3.67163e-06
-1.06692e-05
-2.11229e-06
-1.65289e-06
-1.07787e-05
-2.15138e-06
-1.08582e-05
-8.28304e-06
-1.21919e-06
-2.41604e-05
4.4531e-07
-3.28768e-05
-5.22947e-06
8.88854e-07
1.54758e-05
-7.63209e-06
6.88085e-07
1.61345e-05
-8.38638e-06
1.87723e-07
1.2766e-05
-8.5639e-06
-3.23621e-07
9.37446e-06
-8.78557e-06
-8.07764e-07
6.36425e-06
-9.37782e-06
-1.3184e-06
3.12559e-06
-1.03507e-05
-1.82561e-06
-1.57041e-06
-1.07992e-05
-1.94173e-06
-9.74676e-06
-8.42343e-06
-1.24723e-06
-2.15228e-05
3.6303e-07
-2.99707e-05
-3.13545e-06
1.09293e-05
-4.06692e-06
9.81934e-06
-4.22747e-06
7.32421e-06
-4.36247e-06
5.25001e-06
-4.85259e-06
3.59522e-06
-5.90823e-06
1.86824e-06
-7.4821e-06
-7.94358e-07
-8.57513e-06
-5.70092e-06
-7.10453e-06
-1.30466e-05
-1.94926e-05
-3.14463e-06
-1.44343e-06
1.55173e-05
-9.39334e-07
-1.08609e-06
8.70014e-06
1.84552e-06
-2.98186e-07
4.83755e-06
3.71031e-06
4.01681e-07
2.98353e-06
4.51211e-06
1.02618e-06
1.76724e-06
4.02605e-06
1.66342e-06
6.90881e-07
1.90305e-06
2.37672e-06
-1.04808e-06
-1.51328e-06
2.56576e-06
-4.85035e-06
-3.60638e-06
1.41972e-06
-1.23732e-05
-1.64894e-06
-2.14501e-05
-5.50381e-06
-1.42355e-06
2.09597e-05
-2.81307e-06
-1.30419e-06
1.36619e-05
1.34848e-06
-5.26991e-07
8.83322e-06
4.89278e-06
2.82463e-07
5.94938e-06
7.42906e-06
1.04139e-06
3.81276e-06
8.58627e-06
1.79884e-06
1.83296e-06
7.75876e-06
2.54557e-06
-9.1174e-07
4.59474e-06
2.62258e-06
-6.63956e-06
1.08741e-06
1.14741e-06
-1.77431e-05
-1.42315e-06
-2.91091e-05
-6.04251e-06
-9.09513e-07
2.17188e-05
-3.41519e-06
-9.4986e-07
1.46365e-05
9.53086e-07
-4.70399e-07
9.86729e-06
4.96178e-06
9.48681e-08
6.85317e-06
8.17167e-06
6.50044e-07
4.52155e-06
1.01415e-05
1.19639e-06
2.30421e-06
1.00529e-05
1.69306e-06
-7.11749e-07
7.16398e-06
1.7041e-06
-7.05082e-06
2.53265e-06
7.41777e-07
-1.91234e-05
-7.79074e-07
-3.09882e-05
-5.99982e-06
-4.1602e-07
2.17188e-05
-3.34305e-06
-4.71167e-07
1.46961e-05
1.05561e-06
-2.58311e-07
1.00106e-05
5.14525e-06
1.11276e-08
7.03578e-06
8.50071e-06
2.85159e-07
4.70915e-06
1.06514e-05
5.5398e-07