/*--------------------------------*- C++ -*----------------------------------*\
  =========                 |
  \\      /  F ield         | OpenFOAM: The Open Source CFD Toolbox
   \\    /   O peration     | Website:  https://openfoam.org
    \\  /    A nd           | Version:  9
     \\/     M anipulation  |
\*---------------------------------------------------------------------------*/
FoamFile
{
    format      ascii;
    class       volVectorField;
    location    "0.14";
    object      U;
}
// * * * * * * * * * * * * * * * * * * * * * * * * * * * * * * * * * * * * * //

dimensions      [0 1 -1 0 0 0 0];

internalField   nonuniform List<vector> 
1000
(
(-0.000395075 -0.000196664 0.000532951)
(-0.00258507 -2.88059e-05 0.00117644)
(-0.00607121 3.42542e-05 0.00124507)
(-0.00908308 -1.04847e-05 0.00103992)
(-0.0111485 -0.000129296 0.000683721)
(-0.0118422 -0.000291232 0.000197058)
(-0.0108022 -0.000462064 -0.000406338)
(-0.00791882 -0.000565913 -0.000984863)
(-0.00362004 -0.000486691 -0.00119382)
(-0.000605571 -9.63382e-05 -0.000523411)
(-0.000796571 -0.000507388 0.000845968)
(-0.00476628 -0.000287946 0.00213551)
(-0.010898 -0.000171646 0.00227064)
(-0.0160885 -0.000222692 0.00181781)
(-0.0195147 -0.000410828 0.0010443)
(-0.020539 -0.000691272 1.25461e-05)
(-0.0186227 -0.000985322 -0.00120851)
(-0.0135998 -0.00114769 -0.0023011)
(-0.00622219 -0.000976179 -0.00254915)
(-0.00105336 -0.000257487 -0.000996873)
(-0.000893056 -0.000579901 0.000809188)
(-0.00545992 -0.000542263 0.00231083)
(-0.0125338 -0.000450668 0.00248825)
(-0.0184797 -0.000443148 0.00196071)
(-0.0223737 -0.000537165 0.00104918)
(-0.0234955 -0.000711523 -0.000164588)
(-0.0212367 -0.000895633 -0.0015895)
(-0.0154187 -0.000977817 -0.00284077)
(-0.00691591 -0.000824503 -0.00305196)
(-0.00108971 -0.000300701 -0.0011273)
(-0.000878103 -0.000418168 0.000718991)
(-0.00558916 -0.00045443 0.00225995)
(-0.0129672 -0.000398257 0.00246059)
(-0.0191653 -0.000372815 0.00193334)
(-0.0232214 -0.000402257 0.00100675)
(-0.0243808 -0.000476632 -0.000237162)
(-0.0220042 -0.000558067 -0.0017034)
(-0.0159074 -0.000585926 -0.00298686)
(-0.00701474 -0.000495434 -0.00317294)
(-0.00103258 -0.000215881 -0.00112982)
(-0.000857004 -0.000149594 0.000667972)
(-0.00558734 -0.000172499 0.00220882)
(-0.013046 -0.000154278 0.0024202)
(-0.0193174 -0.000141675 0.00190315)
(-0.0234256 -0.000145507 0.000984583)
(-0.0246011 -0.000163604 -0.000255686)
(-0.0221912 -0.000184492 -0.00172374)
(-0.0160104 -0.000189744 -0.00301002)
(-0.00700193 -0.000161217 -0.0031875)
(-0.000994996 -7.69267e-05 -0.00111781)
(-0.000857004 0.000149659 0.000667972)
(-0.00558735 0.000172532 0.00220882)
(-0.013046 0.000154299 0.0024202)
(-0.0193174 0.000141692 0.00190315)
(-0.0234256 0.000145519 0.000984582)
(-0.0246011 0.000163612 -0.000255686)
(-0.0221912 0.000184497 -0.00172374)
(-0.0160104 0.000189747 -0.00301003)
(-0.00700193 0.000161219 -0.0031875)
(-0.000994995 7.69203e-05 -0.00111781)
(-0.000878103 0.000418245 0.000718994)
(-0.00558917 0.000454463 0.00225996)
(-0.0129673 0.000398279 0.00246059)
(-0.0191653 0.000372833 0.00193334)
(-0.0232214 0.000402269 0.00100675)
(-0.0243808 0.00047664 -0.000237164)
(-0.0220042 0.000558072 -0.0017034)
(-0.0159074 0.000585931 -0.00298686)
(-0.00701474 0.000495438 -0.00317294)
(-0.00103258 0.000215875 -0.00112983)
(-0.000893048 0.000579966 0.000809201)
(-0.00545993 0.000542281 0.00231086)
(-0.0125338 0.000450684 0.00248826)
(-0.0184797 0.000443163 0.00196072)
(-0.0223738 0.000537177 0.00104918)
(-0.0234955 0.000711532 -0.000164588)
(-0.0212367 0.00089564 -0.0015895)
(-0.0154187 0.000977824 -0.00284077)
(-0.0069159 0.00082451 -0.00305196)
(-0.0010897 0.000300698 -0.00112731)
(-0.000796512 0.000507423 0.000846034)
(-0.00476626 0.000287921 0.00213557)
(-0.010898 0.000171662 0.00227067)
(-0.0160886 0.000222709 0.00181782)
(-0.0195147 0.000410843 0.0010443)
(-0.020539 0.000691284 1.25474e-05)
(-0.0186227 0.000985331 -0.0012085)
(-0.0135998 0.0011477 -0.0023011)
(-0.00622218 0.00097619 -0.00254915)
(-0.00105335 0.00025749 -0.000996877)
(-0.00039502 0.000196604 0.000533012)
(-0.0025851 2.87439e-05 0.00117651)
(-0.00607127 -3.42571e-05 0.00124508)
(-0.00908314 1.04894e-05 0.00103992)
(-0.0111486 0.000129301 0.000683722)
(-0.0118422 0.000291236 0.000197059)
(-0.0108022 0.000462066 -0.000406336)
(-0.00791883 0.000565916 -0.000984859)
(-0.00362004 0.000486698 -0.00119382)
(-0.000605565 9.63442e-05 -0.000523412)
(-0.00105956 -0.000619277 0.00322572)
(-0.00524736 -0.00049729 0.00573274)
(-0.0112718 -0.000382117 0.00579412)
(-0.0163853 -0.000337891 0.00469022)
(-0.0198396 -0.000360069 0.00291316)
(-0.021007 -0.000439443 0.000590621)
(-0.0193134 -0.000544882 -0.00212667)
(-0.0145021 -0.00058294 -0.0046843)
(-0.00716759 -0.000403801 -0.00575442)
(-0.00150072 0.000147024 -0.00325825)
(-0.00232951 -0.00133278 0.0051702)
(-0.0106647 -0.00123294 0.0101151)
(-0.0221406 -0.00100536 0.0102701)
(-0.0316395 -0.000884694 0.00798087)
(-0.0377783 -0.000899689 0.00432258)
(-0.0395448 -0.00103717 -0.000359037)
(-0.0360614 -0.0012164 -0.00566285)
(-0.0269837 -0.0012595 -0.0103618)
(-0.0134677 -0.00089939 -0.0117262)
(-0.00291455 0.000106839 -0.0059109)
(-0.00274767 -0.00125201 0.00542375)
(-0.0126082 -0.00136354 0.0111651)
(-0.0261454 -0.00117377 0.0113919)
(-0.037245 -0.00102199 0.0086998)
(-0.0443216 -0.000984353 0.00437287)
(-0.0462336 -0.00105805 -0.0011538)
(-0.0420127 -0.00116344 -0.00737119)
(-0.0313051 -0.00116182 -0.0127711)
(-0.0154805 -0.000868304 -0.0140503)
(-0.00327545 -0.000138064 -0.00677882)
(-0.00280235 -0.000813852 0.00528261)
(-0.013068 -0.000966955 0.0111958)
(-0.0272596 -0.000853346 0.0114761)
(-0.038875 -0.000736939 0.00872048)
(-0.0462617 -0.000685748 0.0042527)
(-0.0482278 -0.00070173 -0.00147715)
(-0.0437647 -0.000740641 -0.00793185)
(-0.0325114 -0.000723559 -0.0135121)
(-0.0159169 -0.000558038 -0.0147269)
(-0.00327938 -0.000165382 -0.00698294)
(-0.00278346 -0.000277121 0.00516756)
(-0.013117 -0.000342946 0.011096)
(-0.027476 -0.000306263 0.0114057)
(-0.0392334 -0.000263259 0.00866354)
(-0.0467141 -0.000240368 0.00419204)
(-0.0487051 -0.00023934 -0.00156095)
(-0.0441799 -0.000246835 -0.00805583)
(-0.0327737 -0.000238388 -0.0136713)
(-0.0159637 -0.000187515 -0.0148667)
(-0.00324343 -6.92797e-05 -0.00700909)
(-0.00278346 0.000277157 0.00516756)
(-0.013117 0.000342932 0.011096)
(-0.027476 0.000306247 0.0114057)
(-0.0392334 0.000263255 0.00866354)
(-0.0467141 0.00024037 0.00419204)
(-0.0487051 0.000239345 -0.00156096)
(-0.0441799 0.000246842 -0.00805583)
(-0.0327737 0.000238399 -0.0136713)
(-0.0159637 0.000187529 -0.0148667)
(-0.00324343 6.92857e-05 -0.00700909)
(-0.00280234 0.00081389 0.00528261)
(-0.013068 0.000966936 0.0111958)
(-0.0272596 0.000853327 0.0114761)
(-0.038875 0.000736935 0.00872048)
(-0.0462617 0.00068575 0.00425269)
(-0.0482277 0.000701735 -0.00147715)
(-0.0437647 0.00074065 -0.00793185)
(-0.0325114 0.000723572 -0.0135121)
(-0.0159169 0.000558055 -0.0147269)
(-0.00327938 0.000165388 -0.00698294)
(-0.00274765 0.00125203 0.00542375)
(-0.0126082 0.00136351 0.0111652)
(-0.0261453 0.00117374 0.011392)
(-0.037245 0.00102198 0.0086998)
(-0.0443216 0.000984358 0.00437286)
(-0.0462335 0.00105806 -0.0011538)
(-0.0420127 0.00116345 -0.0073712)
(-0.0313051 0.00116183 -0.0127711)
(-0.0154805 0.000868325 -0.0140503)
(-0.00327544 0.000138071 -0.00677882)
(-0.00232945 0.00133275 0.00517025)
(-0.0106647 0.00123288 0.0101151)
(-0.0221406 0.00100534 0.0102702)
(-0.0316395 0.000884695 0.00798088)
(-0.0377782 0.0008997 0.00432258)
(-0.0395448 0.00103718 -0.000359041)
(-0.0360614 0.00121641 -0.00566286)
(-0.0269837 0.00125952 -0.0103618)
(-0.0134677 0.000899414 -0.0117262)
(-0.00291454 -0.00010683 -0.0059109)
(-0.00105949 0.00061921 0.00322571)
(-0.00524732 0.000497226 0.00573279)
(-0.0112718 0.000382095 0.00579412)
(-0.0163853 0.000337887 0.00469022)
(-0.0198397 0.000360073 0.00291316)
(-0.021007 0.000439446 0.000590622)
(-0.0193134 0.000544887 -0.00212667)
(-0.0145021 0.00058295 -0.0046843)
(-0.00716758 0.000403816 -0.00575443)
(-0.00150071 -0.000147016 -0.00325824)
(-0.0015021 -0.000983153 0.00817225)
(-0.00701601 -0.000897312 0.0133768)
(-0.0146809 -0.00073525 0.0132166)
(-0.0211532 -0.000620683 0.0105918)
(-0.0256821 -0.000573171 0.00654473)
(-0.0275625 -0.000602759 0.00134107)
(-0.0259793 -0.000688202 -0.00472849)
(-0.020252 -0.000710066 -0.010611)
(-0.010657 -0.000458225 -0.0134968)
(-0.00248513 0.000281787 -0.00858051)
(-0.00338158 -0.00206252 0.013091)
(-0.0146835 -0.00206669 0.0232422)
(-0.0296949 -0.0017327 0.0230324)
(-0.0420203 -0.00145222 0.0177058)
(-0.050226 -0.00131236 0.00952489)
(-0.0531771 -0.00133827 -0.000787183)
(-0.0495961 -0.0014649 -0.0124746)
(-0.0384341 -0.00147173 -0.0231712)
(-0.0203562 -0.000985993 -0.0271005)
(-0.00483687 0.000332504 -0.0153567)
(-0.00402967 -0.00186589 0.0140748)
(-0.0175173 -0.00211034 0.0258313)
(-0.0353688 -0.00181514 0.0256518)
(-0.0498737 -0.00149953 0.0193742)
(-0.0593853 -0.00130443 0.00969025)
(-0.0626305 -0.00126115 -0.00248921)
(-0.0581924 -0.00130241 -0.0162185)
(-0.044912 -0.001267 -0.0285461)
(-0.0235972 -0.000901575 -0.0324819)
(-0.00549989 -5.74093e-06 -0.0177081)
(-0.00412961 -0.0011756 0.014031)
(-0.0182008 -0.0014266 0.0261652)
(-0.0369461 -0.00124303 0.026055)
(-0.0521468 -0.0010139 0.0195833)
(-0.0620895 -0.000853494 0.00953362)
(-0.0654467 -0.000786156 -0.00314214)
(-0.0607419 -0.000777115 -0.0174432)
(-0.0467686 -0.000739184 -0.0302365)
(-0.024387 -0.000548958 -0.0341298)
(-0.00557843 -0.000103528 -0.0183791)
(-0.00410881 -0.00039272 0.0138962)
(-0.018275 -0.000493339 0.0260836)
(-0.0372409 -0.000432665 0.026023)
(-0.052628 -0.000350381 0.0195549)
(-0.0626994 -0.000289204 0.0094665)
(-0.0661051 -0.000258452 -0.0032894)
(-0.0613427 -0.00024851 -0.0177073)
(-0.0471864 -0.000233258 -0.0306112)
(-0.0245135 -0.000177886 -0.0345026)
(-0.0055548 -4.98947e-05 -0.0185222)
(-0.00410881 0.000392748 0.0138962)
(-0.018275 0.000493319 0.0260836)
(-0.0372409 0.000432647 0.026023)
(-0.052628 0.000350378 0.0195549)
(-0.0626994 0.000289206 0.00946649)
(-0.0661051 0.000258454 -0.00328941)
(-0.0613427 0.000248512 -0.0177073)
(-0.0471864 0.000233262 -0.0306112)
(-0.0245135 0.000177889 -0.0345026)
(-0.0055548 4.98991e-05 -0.0185222)
(-0.0041296 0.00117562 0.014031)
(-0.0182008 0.00142658 0.0261652)
(-0.0369461 0.00124301 0.026055)
(-0.0521468 0.0010139 0.0195833)
(-0.0620895 0.000853495 0.00953361)
(-0.0654467 0.000786158 -0.00314215)
(-0.0607419 0.000777118 -0.0174433)
(-0.0467686 0.000739189 -0.0302365)
(-0.024387 0.000548962 -0.0341299)
(-0.00557844 0.000103531 -0.0183791)
(-0.00402965 0.00186591 0.0140748)
(-0.0175173 0.00211031 0.0258313)
(-0.0353687 0.00181512 0.0256518)
(-0.0498736 0.00149952 0.0193742)
(-0.0593853 0.00130443 0.00969024)
(-0.0626304 0.00126115 -0.00248922)
(-0.0581924 0.00130241 -0.0162185)
(-0.044912 0.00126701 -0.0285461)
(-0.0235972 0.000901582 -0.032482)
(-0.0054999 5.74223e-06 -0.0177081)
(-0.00338156 0.00206253 0.013091)
(-0.0146835 0.00206665 0.0232423)
(-0.0296949 0.00173269 0.0230324)
(-0.0420202 0.00145222 0.0177058)
(-0.050226 0.00131237 0.00952489)
(-0.053177 0.00133828 -0.000787196)
(-0.0495961 0.0014649 -0.0124746)
(-0.0384341 0.00147174 -0.0231712)
(-0.0203562 0.000985998 -0.0271006)
(-0.00483687 -0.000332506 -0.0153567)
(-0.00150209 0.00098314 0.00817222)
(-0.00701601 0.00089728 0.0133768)
(-0.0146809 0.000735236 0.0132166)
(-0.0211532 0.000620681 0.0105918)
(-0.0256821 0.000573173 0.00654473)
(-0.0275625 0.000602759 0.00134107)
(-0.0259793 0.000688201 -0.00472849)
(-0.0202521 0.000710068 -0.010611)
(-0.010657 0.000458227 -0.0134968)
(-0.00248513 -0.000281788 -0.0085805)
(-0.00206277 -0.00140193 0.0146494)
(-0.0090953 -0.0013369 0.0230732)
(-0.0185326 -0.00110733 0.0225044)
(-0.0265114 -0.000911783 0.0181035)
(-0.0324579 -0.000795709 0.0115658)
(-0.0356864 -0.000786824 0.00314993)
(-0.0350424 -0.00088775 -0.00699519)
(-0.0289622 -0.000951204 -0.0175474)
(-0.0167622 -0.000664623 -0.0238246)
(-0.00449453 0.000314093 -0.0165854)
(-0.00459656 -0.00291098 0.0232751)
(-0.0191037 -0.00299463 0.039608)
(-0.0378063 -0.00249987 0.0387078)
(-0.0531712 -0.00201207 0.0298369)
(-0.0640479 -0.00168647 0.0166341)
(-0.0693543 -0.00158555 -6.37741e-05)
(-0.0672207 -0.00170652 -0.0195753)
(-0.0550606 -0.00177949 -0.0387803)
(-0.0318853 -0.00127375 -0.0479253)
(-0.00852358 0.000376421 -0.0296607)
(-0.00546186 -0.00259414 0.0251274)
(-0.0227805 -0.00295864 0.0440099)
(-0.0450769 -0.00249104 0.0430831)
(-0.0632135 -0.00193493 0.0326636)
(-0.0758653 -0.00151338 0.0170643)
(-0.0818436 -0.00129798 -0.00264484)
(-0.0790359 -0.00128135 -0.0255662)
(-0.0644866 -0.00128788 -0.047769)
(-0.0371031 -0.000974867 -0.0574284)
(-0.00975054 1.98162e-05 -0.034306)
(-0.00558759 -0.00161004 0.0252056)
(-0.0236322 -0.0019519 0.0447143)
(-0.0470388 -0.00164788 0.0438955)
(-0.0660526 -0.00124458 0.0331736)
(-0.0792956 -0.000916025 0.017008)
(-0.08553 -0.000718363 -0.00348181)
(-0.0825517 -0.000648724 -0.0273624)
(-0.0672612 -0.000631967 -0.0504612)
(-0.0385139 -0.000504589 -0.0602837)
(-0.00999903 -7.58998e-05 -0.0356706)
(-0.00555418 -0.000532366 0.0250583)
(-0.0237014 -0.000665597 0.0446739)
(-0.0473681 -0.000562692 0.0439434)
(-0.0666102 -0.000418239 0.0332371)
(-0.0800292 -0.000296145 0.0170211)
(-0.0863661 -0.00021721 -0.00358949)
(-0.0833804 -0.000183808 -0.027665)
(-0.0679185 -0.000175072 -0.0509921)
(-0.0388135 -0.000145882 -0.0609049)
(-0.0100247 -3.67502e-05 -0.0359844)
(-0.00555417 0.000532388 0.0250583)
(-0.0237014 0.000665582 0.0446739)
(-0.0473681 0.000562679 0.0439434)
(-0.0666102 0.000418237 0.0332371)
(-0.0800292 0.000296143 0.0170211)
(-0.0863661 0.000217204 -0.00358949)
(-0.0833804 0.000183798 -0.027665)
(-0.0679185 0.00017506 -0.0509921)
(-0.0388135 0.000145871 -0.0609049)
(-0.0100247 3.67517e-05 -0.0359844)
(-0.00558759 0.00161006 0.0252056)
(-0.0236322 0.00195188 0.0447143)
(-0.0470388 0.00164787 0.0438955)
(-0.0660526 0.00124457 0.0331736)
(-0.0792956 0.000916021 0.017008)
(-0.08553 0.000718355 -0.00348182)
(-0.0825517 0.000648715 -0.0273624)
(-0.0672612 0.000631955 -0.0504612)
(-0.0385139 0.000504578 -0.0602836)
(-0.00999903 7.58993e-05 -0.0356706)
(-0.00546185 0.00259415 0.0251274)
(-0.0227805 0.00295862 0.0440099)
(-0.0450769 0.00249103 0.0430831)
(-0.0632135 0.00193493 0.0326635)
(-0.0758653 0.00151338 0.0170643)
(-0.0818436 0.00129796 -0.00264486)
(-0.0790359 0.00128134 -0.0255662)
(-0.0644866 0.00128787 -0.047769)
(-0.0371031 0.000974855 -0.0574284)
(-0.00975054 -1.98202e-05 -0.034306)
(-0.00459654 0.00291099 0.0232751)
(-0.0191037 0.0029946 0.039608)
(-0.0378063 0.00249986 0.0387078)
(-0.0531711 0.00201207 0.0298369)
(-0.0640479 0.00168647 0.016634)
(-0.0693543 0.00158554 -6.37916e-05)
(-0.0672207 0.00170651 -0.0195753)
(-0.0550606 0.00177947 -0.0387803)
(-0.0318853 0.00127373 -0.0479253)
(-0.00852358 -0.000376429 -0.0296607)
(-0.00206276 0.00140192 0.0146494)
(-0.0090953 0.00133688 0.0230732)
(-0.0185326 0.00110732 0.0225043)
(-0.0265114 0.000911782 0.0181035)
(-0.0324579 0.000795706 0.0115658)
(-0.0356865 0.000786814 0.00314993)
(-0.0350424 0.000887737 -0.00699519)
(-0.0289622 0.000951192 -0.0175474)
(-0.0167622 0.000664612 -0.0238246)
(-0.00449454 -0.000314099 -0.0165854)
(-0.0030903 -0.00197055 0.0234527)
(-0.0123173 -0.00189134 0.0355308)
(-0.0238717 -0.00151121 0.0341503)
(-0.0335903 -0.00114383 0.0276857)
(-0.0413978 -0.000877893 0.0185799)
(-0.0468397 -0.000767738 0.00680718)
(-0.0484301 -0.000822529 -0.00819137)
(-0.0431963 -0.000982336 -0.0254428)
(-0.0283863 -0.000829276 -0.0382279)
(-0.00892124 0.000166118 -0.0299713)
(-0.00659192 -0.00403362 0.0367682)
(-0.0254937 -0.00413213 0.0602209)
(-0.0486286 -0.00329633 0.0580637)
(-0.0675499 -0.00238949 0.0451814)
(-0.0819411 -0.00166793 0.0267675)
(-0.0910785 -0.00125967 0.00328654)
(-0.0925338 -0.00121663 -0.0256525)
(-0.0813317 -0.00144062 -0.0572323)
(-0.0530234 -0.00130263 -0.0771511)
(-0.0162967 0.000111864 -0.0538268)
(-0.0077322 -0.00352876 0.0396329)
(-0.0301822 -0.00396896 0.0667452)
(-0.057787 -0.00315294 0.0645419)
(-0.080177 -0.00213717 0.049558)
(-0.0969704 -0.00125961 0.0279075)
(-0.10738 -0.00066465 0.000238921)
(-0.108638 -0.000451281 -0.033692)
(-0.0950297 -0.000577028 -0.0703051)
(-0.0615901 -0.00068841 -0.0922372)
(-0.0186453 -0.000120188 -0.0623511)
(-0.0078714 -0.00215636 0.0398401)
(-0.0311769 -0.00256602 0.0678836)
(-0.0601183 -0.0020275 0.0658938)
(-0.0835916 -0.00130508 0.0505833)
(-0.101188 -0.000656684 0.0282555)
(-0.112098 -0.000189323 -0.000424024)
(-0.113425 2.08193e-05 -0.0357102)
(-0.0991582 -3.65545e-05 -0.0738591)
(-0.0641205 -0.000204135 -0.096567)
(-0.0192801 -0.000101771 -0.0648871)
(-0.00781112 -0.000705968 0.0396784)
(-0.0312034 -0.00086504 0.0679027)
(-0.0604328 -0.000681553 0.0660784)
(-0.0841795 -0.000425689 0.0508436)
(-0.102019 -0.000191952 0.0285055)
(-0.113126 -2.07535e-05 -0.000290714)
(-0.114557 6.31135e-05 -0.0358381)
(-0.100203 4.73704e-05 -0.0743956)
(-0.0647819 -2.57723e-05 -0.0974322)
(-0.019443 -3.49961e-05 -0.065483)
(-0.00781112 0.000705984 0.0396784)
(-0.0312034 0.000865028 0.0679027)
(-0.0604328 0.000681542 0.0660784)
(-0.0841795 0.000425684 0.0508436)
(-0.102019 0.000191944 0.0285055)
(-0.113126 2.0743e-05 -0.000290714)
(-0.114557 -6.31219e-05 -0.0358381)
(-0.100203 -4.73751e-05 -0.0743956)
(-0.0647819 2.578e-05 -0.0974322)
(-0.019443 3.50044e-05 -0.065483)
(-0.0078714 0.00215637 0.0398401)
(-0.0311769 0.002566 0.0678837)
(-0.0601183 0.00202749 0.0658938)
(-0.0835916 0.00130508 0.0505833)
(-0.101188 0.000656674 0.0282555)
(-0.112098 0.000189311 -0.000424024)
(-0.113425 -2.08279e-05 -0.0357102)
(-0.0991582 3.65478e-05 -0.0738591)
(-0.0641205 0.000204136 -0.096567)
(-0.0192801 0.000101774 -0.0648871)
(-0.00773219 0.00352877 0.0396329)
(-0.0301822 0.00396894 0.0667452)
(-0.057787 0.00315293 0.0645419)
(-0.080177 0.00213716 0.049558)
(-0.0969704 0.0012596 0.0279075)
(-0.10738 0.000664634 0.00023892)
(-0.108638 0.000451272 -0.033692)
(-0.0950297 0.000577024 -0.0703051)
(-0.0615901 0.000688411 -0.0922372)
(-0.0186453 0.000120191 -0.062351)
(-0.00659191 0.00403363 0.0367682)
(-0.0254937 0.00413212 0.0602209)
(-0.0486286 0.00329633 0.0580637)
(-0.0675499 0.00238948 0.0451814)
(-0.0819411 0.00166791 0.0267675)
(-0.0910785 0.00125965 0.00328654)
(-0.0925338 0.00121662 -0.0256525)
(-0.0813317 0.00144062 -0.0572323)
(-0.0530234 0.00130264 -0.0771511)
(-0.0162967 -0.000111859 -0.0538268)
(-0.00309029 0.00197055 0.0234527)
(-0.0123173 0.00189134 0.0355308)
(-0.0238717 0.00151122 0.0341503)
(-0.0335903 0.00114383 0.0276857)
(-0.0413978 0.000877886 0.0185799)
(-0.0468397 0.000767723 0.00680717)
(-0.0484302 0.000822519 -0.00819137)
(-0.0431963 0.000982334 -0.0254428)
(-0.0283863 0.000829281 -0.0382279)
(-0.00892124 -0.000166111 -0.0299713)
(-0.0051428 -0.00277957 0.036094)
(-0.0176001 -0.00256932 0.0515638)
(-0.0311352 -0.00180622 0.0482749)
(-0.0421674 -0.00101034 0.0391993)
(-0.0517222 -0.000329224 0.0275608)
(-0.0600771 0.000188166 0.0126782)
(-0.0657077 0.000458158 -0.0076166)
(-0.0638521 0.00022716 -0.0340476)
(-0.0483071 -0.000226521 -0.0584475)
(-0.0175191 -0.000251874 -0.0536843)
(-0.0101649 -0.00557092 0.0555516)
(-0.0351727 -0.00547453 0.0863097)
(-0.0628095 -0.00384319 0.081526)
(-0.0846499 -0.00198541 0.0640062)
(-0.102184 -0.000299389 0.0406255)
(-0.115855 0.00105504 0.0108093)
(-0.123138 0.00188012 -0.0285338)
(-0.116226 0.00158634 -0.0771767)
(-0.0858658 0.000355579 -0.117248)
(-0.029917 -0.000578219 -0.096385)
(-0.0116575 -0.00474665 0.0595991)
(-0.0410553 -0.00512196 0.0953277)
(-0.0741072 -0.00357677 0.0905991)
(-0.100055 -0.00163505 0.0706107)
(-0.120497 0.000195832 0.0434086)
(-0.135859 0.00168395 0.0084875)
(-0.143296 0.00258566 -0.0374976)
(-0.133994 0.00235335 -0.0939757)
(-0.0980376 0.000958072 -0.139292)
(-0.0335837 -0.000453902 -0.111458)
(-0.0117831 -0.00284403 0.0599267)
(-0.0421186 -0.00325307 0.09696)
(-0.0767117 -0.00225934 0.092668)
(-0.103927 -0.000942275 0.0724787)
(-0.125366 0.000319812 0.044662)
(-0.141433 0.00134655 0.00867122)
(-0.149183 0.00194147 -0.0390195)
(-0.139403 0.0017802 -0.0979184)
(-0.101865 0.000826634 -0.145283)
(-0.0347568 -0.000205167 -0.115954)
(-0.0116721 -0.000920253 0.0597386)
(-0.0420351 -0.00108583 0.0970466)
(-0.0769163 -0.000752168 0.0930518)
(-0.104442 -0.000297282 0.0730664)
(-0.126197 0.000141785 0.0453556)
(-0.142577 0.000497923 0.00932705)
(-0.150604 0.000697425 -0.038665)
(-0.140902 0.000639099 -0.0982351)
(-0.103051 0.000312802 -0.146394)
(-0.0351582 -4.80009e-05 -0.117048)
(-0.0116721 0.000920262 0.0597386)
(-0.0420351 0.00108583 0.0970466)
(-0.0769163 0.00075216 0.0930518)
(-0.104442 0.000297275 0.0730664)
(-0.126197 -0.000141795 0.0453556)
(-0.142577 -0.000497928 0.00932705)
(-0.150604 -0.000697419 -0.0386649)
(-0.140902 -0.00063909 -0.0982351)
(-0.103051 -0.000312791 -0.146394)
(-0.0351582 4.80089e-05 -0.117048)
(-0.0117831 0.00284404 0.0599267)
(-0.0421186 0.00325306 0.09696)
(-0.0767117 0.00225933 0.092668)
(-0.103927 0.000942266 0.0724787)
(-0.125366 -0.000319823 0.044662)
(-0.141433 -0.00134656 0.00867122)
(-0.149183 -0.00194146 -0.0390195)
(-0.139403 -0.00178019 -0.0979183)
(-0.101865 -0.000826632 -0.145283)
(-0.0347568 0.000205169 -0.115954)
(-0.0116575 0.00474666 0.0595991)
(-0.0410553 0.00512196 0.0953278)
(-0.0741072 0.00357677 0.0905991)
(-0.100055 0.00163504 0.0706107)
(-0.120497 -0.000195843 0.0434085)
(-0.135859 -0.00168396 0.00848751)
(-0.143296 -0.00258566 -0.0374976)
(-0.133994 -0.00235334 -0.0939757)
(-0.0980376 -0.000958061 -0.139292)
(-0.0335837 0.000453907 -0.111458)
(-0.0101648 0.00557093 0.0555516)
(-0.0351727 0.00547453 0.0863098)
(-0.0628095 0.0038432 0.081526)
(-0.0846499 0.0019854 0.0640062)
(-0.102184 0.000299375 0.0406255)
(-0.115855 -0.00105505 0.0108093)
(-0.123138 -0.00188011 -0.0285338)
(-0.116226 -0.00158632 -0.0771767)
(-0.0858658 -0.000355557 -0.117248)
(-0.029917 0.000578221 -0.096385)
(-0.0051428 0.00277957 0.036094)
(-0.0176001 0.00256932 0.0515638)
(-0.0311352 0.00180623 0.0482749)
(-0.0421674 0.00101033 0.0391993)
(-0.0517222 0.000329214 0.0275608)
(-0.0600771 -0.000188175 0.0126781)
(-0.0657077 -0.000458153 -0.0076166)
(-0.0638521 -0.000227145 -0.0340476)
(-0.0483071 0.000226537 -0.0584475)
(-0.0175191 0.000251879 -0.0536843)
(-0.00948252 -0.00394963 0.0556785)
(-0.0264688 -0.00334899 0.0714602)
(-0.0396861 -0.00169248 0.0635934)
(-0.0494009 4.11262e-05 0.0507016)
(-0.0586104 0.00164942 0.0365182)
(-0.0689732 0.00320385 0.0192105)
(-0.0798013 0.00452257 -0.00592382)
(-0.0849051 0.00458304 -0.0436494)
(-0.0747285 0.00277756 -0.0861332)
(-0.0302393 -0.000574667 -0.096177)
(-0.0169249 -0.00770571 0.0834413)
(-0.0497605 -0.00696491 0.118398)
(-0.0784535 -0.0036112 0.107558)
(-0.0983653 0.00017116 0.0841252)
(-0.114343 0.00383615 0.0563419)
(-0.129052 0.00737462 0.021834)
(-0.141249 0.0102759 -0.0268106)
(-0.141446 0.0104056 -0.0960173)
(-0.11846 0.00611236 -0.167997)
(-0.0446156 -0.00143992 -0.169931)
(-0.0188362 -0.00634943 0.0888384)
(-0.0567956 -0.00638871 0.130233)
(-0.0915171 -0.00344697 0.119677)
(-0.115409 0.000166214 0.0937142)
(-0.133662 0.0037468 0.0619651)
(-0.149131 0.00706463 0.0219614)
(-0.160494 0.0094981 -0.0345936)
(-0.157445 0.00929718 -0.114799)
(-0.129537 0.00514409 -0.197212)
(-0.0475727 -0.00101749 -0.194814)
(-0.0188946 -0.00371373 0.0892344)
(-0.0577261 -0.00400822 0.132338)
(-0.0940493 -0.0022197 0.122561)
(-0.119178 8.66723e-05 0.0966828)
(-0.138287 0.00239352 0.0645609)
(-0.154265 0.00446587 0.0236067)
(-0.165813 0.00585021 -0.0349319)
(-0.162308 0.00559641 -0.118703)
(-0.133379 0.00306523 -0.205167)
(-0.0488563 -0.000441044 -0.202462)
(-0.0186991 -0.00118553 0.0889858)
(-0.0574218 -0.00132914 0.132455)
(-0.0939727 -0.000746721 0.123149)
(-0.119403 2.44555e-05 0.0976516)
(-0.138839 0.000797661 0.0657974)
(-0.155184 0.00148038 0.0249128)
(-0.167145 0.00191128 -0.0339823)
(-0.16393 0.0018057 -0.118843)
(-0.134958 0.00099182 -0.206824)
(-0.0495016 -9.86136e-05 -0.204549)
(-0.0186991 0.00118553 0.0889858)
(-0.0574218 0.00132913 0.132455)
(-0.0939727 0.000746709 0.123149)
(-0.119403 -2.44738e-05 0.0976516)
(-0.138839 -0.000797678 0.0657974)
(-0.155184 -0.00148038 0.0249128)
(-0.167145 -0.00191128 -0.0339823)
(-0.16393 -0.0018057 -0.118843)
(-0.134958 -0.000991835 -0.206824)
(-0.0495016 9.86152e-05 -0.204549)
(-0.0188946 0.00371373 0.0892344)
(-0.0577261 0.00400821 0.132338)
(-0.0940494 0.00221969 0.122561)
(-0.119178 -8.66916e-05 0.0966828)
(-0.138287 -0.00239354 0.0645609)
(-0.154265 -0.00446587 0.0236067)
(-0.165813 -0.00585021 -0.0349319)
(-0.162308 -0.00559642 -0.118703)
(-0.133379 -0.00306524 -0.205167)
(-0.0488563 0.000441046 -0.202462)
(-0.0188362 0.00634943 0.0888384)
(-0.0567956 0.00638871 0.130233)
(-0.0915171 0.00344697 0.119677)
(-0.115409 -0.000166233 0.0937141)
(-0.133662 -0.00374682 0.0619651)
(-0.149131 -0.00706464 0.0219614)
(-0.160494 -0.00949809 -0.0345936)
(-0.157445 -0.00929718 -0.114799)
(-0.129537 -0.00514408 -0.197212)
(-0.0475727 0.00101749 -0.194814)
(-0.0169249 0.00770572 0.0834413)
(-0.0497605 0.00696492 0.118398)
(-0.0784535 0.0036112 0.107558)
(-0.0983654 -0.000171178 0.0841252)
(-0.114343 -0.00383617 0.0563419)
(-0.129052 -0.00737463 0.021834)
(-0.141249 -0.0102759 -0.0268106)
(-0.141446 -0.0104056 -0.0960173)
(-0.11846 -0.00611236 -0.167997)
(-0.0446156 0.00143991 -0.169931)
(-0.00948252 0.00394963 0.0556785)
(-0.0264688 0.00334899 0.0714602)
(-0.0396861 0.00169249 0.0635934)
(-0.0494009 -4.11389e-05 0.0507016)
(-0.0586104 -0.00164943 0.0365182)
(-0.0689732 -0.00320385 0.0192105)
(-0.0798013 -0.00452256 -0.00592382)
(-0.0849051 -0.00458303 -0.0436494)
(-0.0747286 -0.00277757 -0.0861332)
(-0.0302393 0.000574656 -0.096177)
(-0.0187118 -0.00561651 0.0833402)
(-0.0399081 -0.0043162 0.0911877)
(-0.0424551 -0.00113645 0.0750945)
(-0.0427624 0.00206933 0.0568249)
(-0.0453682 0.00499751 0.0402954)
(-0.0530551 0.00810409 0.0220113)
(-0.0672486 0.0112646 -0.005948)
(-0.081753 0.0120961 -0.0558464)
(-0.0906619 0.00802575 -0.122521)
(-0.0380098 -0.00230849 -0.169115)
(-0.030439 -0.0106257 0.119585)
(-0.0702284 -0.00878187 0.15063)
(-0.0830524 -0.00267265 0.129345)
(-0.0854992 0.00391139 0.0982197)
(-0.0865301 0.0102021 0.0671932)
(-0.0906729 0.0167258 0.0316684)
(-0.100191 0.0228952 -0.0207456)
(-0.10652 0.0239706 -0.108584)
(-0.112091 0.0146025 -0.220356)
(-0.0395928 -0.00518387 -0.278801)
(-0.033029 -0.00849543 0.125793)
(-0.0783214 -0.00805803 0.165328)
(-0.095944 -0.00310869 0.144765)
(-0.0998084 0.00271407 0.111105)
(-0.0998719 0.00848307 0.0763369)
(-0.101034 0.0141487 0.0356822)
(-0.106324 0.0188272 -0.0244526)
(-0.10722 0.0187584 -0.125132)
(-0.111092 0.0101351 -0.252863)
(-0.0368164 -0.00360647 -0.311877)
(-0.0330049 -0.00485564 0.126105)
(-0.0788747 -0.00503835 0.167801)
(-0.0976707 -0.00221704 0.148445)
(-0.102121 0.00129398 0.115093)
(-0.102173 0.00485492 0.0801421)
(-0.102789 0.00823813 0.0386691)
(-0.107415 0.0107704 -0.0234908)
(-0.107666 0.0104365 -0.12874)
(-0.112193 0.00552186 -0.262498)
(-0.0372243 -0.00169647 -0.32257)
(-0.0326986 -0.00153013 0.125769)
(-0.078226 -0.00166618 0.167868)
(-0.0970728 -0.000780355 0.149165)
(-0.101695 0.000357994 0.116302)
(-0.101926 0.0015225 0.081688)
(-0.102736 0.00261083 0.0402951)
(-0.107724 0.00338361 -0.0223187)
(-0.108493 0.00323745 -0.129162)
(-0.113657 0.00172288 -0.265096)
(-0.0380134 -0.000437094 -0.325925)
(-0.0326986 0.00153012 0.125769)
(-0.078226 0.00166617 0.167868)
(-0.0970728 0.000780327 0.149165)
(-0.101695 -0.000358029 0.116302)
(-0.101926 -0.00152252 0.081688)
(-0.102736 -0.00261083 0.0402951)
(-0.107724 -0.0033836 -0.0223187)
(-0.108493 -0.00323746 -0.129162)
(-0.113657 -0.00172288 -0.265096)
(-0.0380134 0.000437098 -0.325925)
(-0.0330049 0.00485563 0.126105)
(-0.0788748 0.00503834 0.167801)
(-0.0976707 0.00221701 0.148445)
(-0.102121 -0.00129402 0.115093)
(-0.102173 -0.00485494 0.0801422)
(-0.102789 -0.00823812 0.0386691)
(-0.107415 -0.0107704 -0.0234908)
(-0.107666 -0.0104365 -0.12874)
(-0.112193 -0.00552185 -0.262498)
(-0.0372243 0.00169648 -0.32257)
(-0.033029 0.00849543 0.125793)
(-0.0783214 0.00805803 0.165328)
(-0.095944 0.00310868 0.144765)
(-0.0998084 -0.0027141 0.111105)
(-0.0998719 -0.00848309 0.0763369)
(-0.101034 -0.0141487 0.0356823)
(-0.106324 -0.0188272 -0.0244526)
(-0.10722 -0.0187584 -0.125132)
(-0.111092 -0.0101351 -0.252863)
(-0.0368164 0.00360647 -0.311877)
(-0.030439 0.0106257 0.119585)
(-0.0702284 0.00878188 0.15063)
(-0.0830525 0.00267265 0.129345)
(-0.0854992 -0.00391142 0.0982197)
(-0.0865301 -0.0102021 0.0671932)
(-0.0906729 -0.0167258 0.0316684)
(-0.100191 -0.0228952 -0.0207456)
(-0.10652 -0.0239706 -0.108584)
(-0.112091 -0.0146025 -0.220356)
(-0.0395928 0.00518386 -0.278801)
(-0.0187118 0.00561652 0.0833402)
(-0.0399081 0.00431621 0.0911877)
(-0.0424551 0.00113645 0.0750944)
(-0.0427624 -0.00206935 0.0568249)
(-0.0453682 -0.00499752 0.0402955)
(-0.0530551 -0.00810407 0.0220114)
(-0.0672486 -0.0112646 -0.00594801)
(-0.081753 -0.0120961 -0.0558464)
(-0.0906619 -0.00802577 -0.122521)
(-0.0380098 0.00230847 -0.169115)
(-0.0250034 -0.00926638 0.154734)
(-0.0287413 -0.00695001 0.101663)
(0.00694201 -0.00184332 0.064581)
(0.0298372 0.00277406 0.0427499)
(0.0430939 0.00664287 0.0271791)
(0.0452389 0.010616 0.0117585)
(0.0312743 0.0150993 -0.0129296)
(0.00825628 0.0162559 -0.0651674)
(-0.0453037 0.00901941 -0.154674)
(-0.00663566 -0.0111032 -0.243169)
(-0.0449773 -0.0166079 0.213411)
(-0.0546034 -0.0135368 0.164919)
(-0.00617762 -0.00452386 0.115391)
(0.0332268 0.00426464 0.0807116)
(0.0636941 0.0121588 0.0532303)
(0.0829938 0.0201194 0.0254665)
(0.0824755 0.028638 -0.0155043)
(0.0745976 0.0305428 -0.0975842)
(0.00443586 0.0154923 -0.235565)
(0.0303862 -0.018437 -0.34813)
(-0.0492608 -0.0121001 0.221993)
(-0.0611204 -0.0118334 0.179054)
(-0.0120116 -0.00540467 0.129483)
(0.0310704 0.00177769 0.0928692)
(0.0672908 0.00878684 0.0626957)
(0.0943522 0.0156457 0.0315877)
(0.101092 0.0221352 -0.0139829)
(0.100789 0.0225382 -0.104695)
(0.0273729 0.00946542 -0.25737)
(0.0432568 -0.0109427 -0.374507)
(-0.0491271 -0.00654838 0.222114)
(-0.0604629 -0.00719064 0.180659)