/*--------------------------------*- C++ -*----------------------------------*\
  =========                 |
  \\      /  F ield         | OpenFOAM: The Open Source CFD Toolbox
   \\    /   O peration     | Website:  https://openfoam.org
    \\  /    A nd           | Version:  9
     \\/     M anipulation  |
\*---------------------------------------------------------------------------*/
FoamFile
{
    format      ascii;
    class       surfaceScalarField;
    location    "0.22";
    object      phi;
}
// * * * * * * * * * * * * * * * * * * * * * * * * * * * * * * * * * * * * * //

dimensions      [0 3 -1 0 0 0 0];

internalField   nonuniform List<scalar> 
2700
(
-9.76054e-08
-5.36215e-08
1.51224e-07
-3.71072e-07
-3.72565e-08
3.10724e-07
-6.85608e-07
-2.87757e-08
3.43312e-07
-9.57902e-07
-3.67665e-08
3.09061e-07
-1.12593e-06
-6.20665e-08
2.30091e-07
-1.13086e-06
-1.02281e-07
1.07212e-07
-9.31377e-07
-1.46192e-07
-5.32872e-08
-5.52642e-07
-1.6808e-07
-2.10655e-07
-1.46078e-07
-1.41175e-07
-2.6539e-07
-3.91524e-08
-1.06925e-07
-2.06078e-07
-9.76699e-08
2.50127e-07
-7.25552e-07
-1.00446e-07
5.82664e-07
-1.31031e-06
-9.25846e-08
6.48569e-07
-1.80152e-06
-1.01106e-07
5.55544e-07
-2.08913e-06
-1.30665e-07
3.56216e-07
-2.07695e-06
-1.77077e-07
6.26158e-08
-1.70043e-06
-2.24165e-07
-2.98552e-07
-1.00906e-06
-2.43187e-07
-6.16256e-07
-2.79076e-07
-2.02777e-07
-6.68387e-07
-7.67207e-08
-2.41508e-07
-2.51906e-07
-9.42527e-08
2.48489e-07
-8.83773e-07
-1.12274e-07
6.43695e-07
-1.59057e-06
-1.08559e-07
7.22772e-07
-2.17891e-06
-1.12824e-07
6.0006e-07
-2.51771e-06
-1.32037e-07
3.40175e-07
-2.49134e-06
-1.63591e-07
-3.98568e-08
-2.02423e-06
-1.94838e-07
-4.96435e-07
-1.18164e-06
-2.04683e-07
-8.81095e-07
-3.09568e-07
-1.71479e-07
-9.03374e-07
-7.53375e-08
-3.10952e-07
-2.65274e-07
-5.5386e-08
2.26408e-07
-9.43118e-07
-7.02763e-08
6.35847e-07
-1.70265e-06
-6.91327e-08
7.2011e-07
-2.33364e-06
-7.02845e-08
5.88445e-07
-2.69462e-06
-7.85417e-08
3.07482e-07
-2.6603e-06
-9.28439e-08
-1.05066e-07
-2.14966e-06
-1.07017e-07
-5.98455e-07
-1.23693e-06
-1.10569e-07
-1.00684e-06
-3.06444e-07
-9.33417e-08
-1.00863e-06
-4.44991e-08
-3.37282e-07
-2.67511e-07
2.20965e-12
2.12123e-07
-9.60357e-07
1.46001e-12
6.22568e-07
-1.73855e-06
1.10732e-12
7.09064e-07
-2.38528e-06
8.61267e-13
5.76438e-07
-2.75466e-06
6.40021e-13
2.90837e-07
-2.71746e-06
4.36886e-13
-1.30042e-07
-2.18997e-06
2.31762e-13
-6.3451e-07
-1.25073e-06
3.39521e-14
-1.04981e-06
-3.00403e-07
-1.47238e-13
-1.04367e-06
-4.25582e-13
-3.44901e-07
-2.67512e-07
5.53903e-08
2.12123e-07
-9.60357e-07
7.02791e-08
6.22568e-07
-1.73856e-06
6.91348e-08
7.09064e-07
-2.38528e-06
7.02862e-08
5.76438e-07
-2.75466e-06
7.85429e-08
2.90837e-07
-2.71746e-06
9.28447e-08
-1.30042e-07
-2.18997e-06
1.07018e-07
-6.3451e-07
-1.25073e-06
1.10569e-07
-1.04981e-06
-3.00403e-07
9.33414e-08
-1.04367e-06
4.44981e-08
-3.44901e-07
-2.65275e-07
9.42569e-08
2.26408e-07
-9.43119e-07
1.12276e-07
6.35847e-07
-1.70266e-06
1.08561e-07
7.2011e-07
-2.33364e-06
1.12826e-07
5.88445e-07
-2.69462e-06
1.32038e-07
3.07481e-07
-2.6603e-06
1.63591e-07
-1.05066e-07
-2.14966e-06
1.94839e-07
-5.98455e-07
-1.23693e-06
2.04683e-07
-1.00684e-06
-3.06444e-07
1.71478e-07
-1.00863e-06
7.53365e-08
-3.37282e-07
-2.51906e-07
9.76738e-08
2.4849e-07
-8.83774e-07
1.00447e-07
6.43697e-07
-1.59057e-06
9.2586e-08
7.22772e-07
-2.17891e-06
1.01107e-07
6.0006e-07
-2.51771e-06
1.30666e-07
3.40174e-07
-2.49134e-06
1.77077e-07
-3.98574e-08
-2.02424e-06
2.24166e-07
-4.96435e-07
-1.18164e-06
2.43187e-07
-8.81095e-07
-3.09568e-07
2.02777e-07
-9.03374e-07
7.67201e-08
-3.10952e-07
-2.06076e-07
5.36211e-08
2.50129e-07
-7.25552e-07
3.72547e-08
5.82667e-07
-1.31031e-06
2.87762e-08
6.4857e-07
-1.80152e-06
3.67672e-08
5.55544e-07
-2.08913e-06
6.2067e-08
3.56215e-07
-2.07695e-06
1.02281e-07
6.26152e-08
-1.70043e-06
1.46193e-07
-2.98552e-07
-1.00906e-06
1.68081e-07
-6.16257e-07
-2.79076e-07
1.41176e-07
-6.68387e-07
3.91526e-08
-2.41508e-07
-9.76047e-08
1.51225e-07
-3.71076e-07
3.10726e-07
-6.85612e-07
3.43311e-07
-9.57905e-07
3.09061e-07
-1.12593e-06
2.3009e-07
-1.13086e-06
1.07212e-07
-9.31379e-07
-5.3287e-08
-5.52643e-07
-2.10655e-07
-1.46078e-07
-2.6539e-07
-1.06925e-07
-2.49229e-07
-1.50136e-07
5.50589e-07
-7.64154e-07
-1.53878e-07
9.79527e-07
-1.32508e-06
-1.40774e-07
1.04502e-06
-1.80131e-06
-1.36487e-07
9.21772e-07
-2.09297e-06
-1.48082e-07
6.69839e-07
-2.10729e-06
-1.7534e-07
2.96865e-07
-1.77354e-06
-2.0872e-07
-1.78313e-07
-1.11418e-06
-2.16656e-07
-6.5336e-07
-3.61225e-07
-1.61124e-07
-8.5722e-07
-1.06264e-08
-4.57524e-07
-5.83162e-07
-2.21521e-07
9.04674e-07
-1.66755e-06
-2.65451e-07
1.77863e-06
-2.81521e-06
-2.52519e-07
1.90798e-06
-3.75472e-06
-2.44004e-07
1.60257e-06
-4.29234e-06
-2.56943e-07
1.0027e-06
-4.26835e-06
-2.91172e-07
1.54453e-07
-3.56449e-06
-3.31069e-07
-8.80064e-07
-2.25022e-06
-3.35135e-07
-1.81204e-06
-7.68171e-07
-2.57614e-07
-2.05395e-06
-6.24698e-08
-9.57836e-07
-7.43002e-07
-1.92566e-07
9.62536e-07
-2.10907e-06
-2.51445e-07
1.99575e-06
-3.53888e-06
-2.44328e-07
2.14439e-06
-4.69174e-06
-2.34641e-07
1.74356e-06
-5.33189e-06
-2.41494e-07
9.64879e-07
-5.27361e-06
-2.65848e-07
-1.23465e-07
-4.37591e-06
-2.92369e-07
-1.43284e-06
-2.73906e-06
-2.91493e-07
-2.56158e-06
-9.209e-07
-2.29883e-07
-2.74926e-06
-7.95844e-08
-1.21474e-06
-7.99928e-07
-1.07134e-07
9.40905e-07
-2.28389e-06
-1.4645e-07
2.01482e-06
-3.83439e-06
-1.43862e-07
2.17014e-06
-5.07807e-06
-1.37405e-07
1.73489e-06
-5.76103e-06
-1.39148e-07
8.88096e-07
-5.68329e-06
-1.50029e-07
-2.98625e-07
-4.69667e-06
-1.61741e-07
-1.7157e-06
-2.91559e-06
-1.59962e-07
-2.91945e-06
-9.58391e-07
-1.28487e-07
-3.06723e-06
-5.16932e-08
-1.32356e-06
-8.14099e-07
1.57805e-12
9.19087e-07
-2.33683e-06
3.55584e-13
1.99885e-06
-3.92918e-06
1.69975e-13
2.15755e-06
-5.20513e-06
4.03247e-13
1.71498e-06
-5.90378e-06
5.74081e-13
8.50335e-07
-5.81883e-06
6.41831e-13
-3.65018e-07
-4.79972e-06
6.3878e-13
-1.81536e-06
-2.96654e-06
5.77004e-13
-3.04295e-06
-9.62733e-07
3.3913e-13
-3.17596e-06
-4.58608e-14
-1.35933e-06
-8.14099e-07
1.07137e-07
9.19087e-07
-2.33683e-06
1.46451e-07
1.99885e-06
-3.92918e-06
1.43863e-07
2.15755e-06
-5.20513e-06
1.37406e-07
1.71498e-06
-5.90378e-06
1.39149e-07
8.50335e-07
-5.81883e-06
1.5003e-07
-3.65018e-07
-4.79972e-06
1.61743e-07
-1.81536e-06
-2.96654e-06
1.59963e-07
-3.04295e-06
-9.62733e-07
1.28488e-07
-3.17596e-06
5.16931e-08
-1.35933e-06
-7.99928e-07
1.92568e-07
9.40905e-07
-2.28389e-06
2.51444e-07
2.01482e-06
-3.83439e-06
2.44328e-07
2.17014e-06
-5.07807e-06
2.34642e-07
1.73489e-06
-5.76103e-06
2.41495e-07
8.88095e-07
-5.68329e-06
2.65849e-07
-2.98626e-07
-4.69667e-06
2.9237e-07
-1.7157e-06
-2.91559e-06
2.91494e-07
-2.91945e-06
-9.58391e-07
2.29883e-07
-3.06723e-06
7.95842e-08
-1.32356e-06
-7.43001e-07
2.21522e-07
9.62536e-07
-2.10907e-06
2.65449e-07
1.99576e-06
-3.53887e-06
2.52519e-07
2.14439e-06
-4.69174e-06
2.44004e-07
1.74356e-06
-5.33189e-06
2.56945e-07
9.64878e-07
-5.27361e-06
2.91173e-07
-1.23466e-07
-4.37591e-06
3.3107e-07
-1.43284e-06
-2.73906e-06
3.35137e-07
-2.56158e-06
-9.209e-07
2.57615e-07
-2.74926e-06
6.24698e-08
-1.21474e-06
-5.83159e-07
1.50135e-07
9.04675e-07
-1.66755e-06
1.53875e-07
1.77863e-06
-2.81521e-06
1.40774e-07
1.90798e-06
-3.75472e-06
1.36488e-07
1.60257e-06
-4.29234e-06
1.48083e-07
1.0027e-06
-4.26835e-06
1.75341e-07
1.54453e-07
-3.56449e-06
2.08721e-07
-8.80065e-07
-2.25022e-06
2.16657e-07
-1.81204e-06
-7.68171e-07
1.61125e-07
-2.05395e-06
1.06266e-08
-9.57835e-07
-2.49227e-07
5.50587e-07
-7.64154e-07
9.79527e-07
-1.32509e-06
1.04502e-06
-1.80131e-06
9.21772e-07
-2.09297e-06
6.69839e-07
-2.10729e-06
2.96865e-07
-1.77354e-06
-1.78312e-07
-1.11418e-06
-6.53359e-07
-3.61225e-07
-8.57219e-07
-4.57523e-07
-3.56484e-07
-2.35493e-07
1.14257e-06
-1.03833e-06
-2.5816e-07
1.91953e-06
-1.76467e-06
-2.39196e-07
2.01055e-06
-2.39236e-06
-2.20878e-07
1.77034e-06
-2.81394e-06
-2.17874e-07
1.30929e-06
-2.90956e-06
-2.35912e-07
6.28396e-07
-2.55523e-06
-2.65994e-07
-2.66648e-07
-1.7096e-06
-2.72454e-07
-1.22653e-06
-6.20244e-07
-1.99265e-07
-1.74731e-06
8.88456e-09
-1.08665e-06
-8.66028e-07
-3.35226e-07
1.87044e-06
-2.36542e-06
-4.13987e-07
3.43385e-06
-3.91465e-06
-3.91421e-07
3.60943e-06
-5.19806e-06
-3.59249e-07
3.02435e-06
-5.99748e-06
-3.47448e-07
1.93169e-06
-6.10018e-06
-3.6313e-07
3.84367e-07
-5.29391e-06
-3.9462e-07
-1.55771e-06
-3.54077e-06
-3.9478e-07
-3.44285e-06
-1.33057e-06
-2.9965e-07
-4.16377e-06
-4.66323e-08
-2.23289e-06
-1.12149e-06
-2.81844e-07
2.03065e-06
-3.03979e-06
-3.7407e-07
3.87414e-06
-4.99797e-06
-3.5788e-07
4.06902e-06
-6.59149e-06
-3.25677e-07
3.30351e-06
-7.55197e-06
-3.08826e-07
1.88674e-06
-7.63257e-06
-3.14564e-07
-9.14354e-08
-6.57844e-06
-3.30069e-07
-2.55152e-06
-4.36587e-06
-3.24874e-07
-4.84405e-06
-1.62129e-06
-2.5439e-07
-5.5391e-06
-7.21108e-08
-2.81055e-06
-1.21606e-06
-1.53107e-07
2.02823e-06
-3.31114e-06
-2.11676e-07
3.9475e-06
-5.44427e-06
-2.03796e-07
4.14919e-06
-7.16938e-06
-1.84113e-07
3.31843e-06
-8.19757e-06
-1.71809e-07
1.77927e-06
-8.2626e-06
-1.71102e-07
-3.77058e-07
-7.09641e-06
-1.75699e-07
-3.03626e-06
-4.6793e-06
-1.71388e-07
-5.49005e-06
-1.71005e-06
-1.37399e-07
-6.15346e-06
-4.8728e-08
-3.05699e-06
-1.24058e-06
1.28571e-12
2.00656e-06
-3.39331e-06
4.23073e-14
3.9399e-06
-5.58626e-06
-1.78275e-13
4.14671e-06
-7.3575e-06
1.19104e-13
3.30211e-06
-8.41016e-06
2.82071e-13
1.73118e-06
-8.47023e-06
3.56556e-13
-4.76052e-07
-7.26464e-06
3.4693e-13
-3.19665e-06
-4.77535e-06
2.89889e-13
-5.70362e-06
-1.73033e-06
1.18926e-13
-6.35839e-06
3.90258e-14
-3.13838e-06
-1.24058e-06
1.5311e-07
2.00656e-06
-3.39331e-06
2.11676e-07
3.9399e-06
-5.58626e-06
2.03796e-07
4.14671e-06
-7.3575e-06
1.84113e-07
3.30211e-06
-8.41016e-06
1.71809e-07
1.73118e-06
-8.47023e-06
1.71103e-07
-4.76052e-07
-7.26464e-06
1.75699e-07
-3.19665e-06
-4.77535e-06
1.71389e-07
-5.70362e-06
-1.73033e-06
1.37399e-07
-6.35839e-06
4.87281e-08
-3.13838e-06
-1.21606e-06
2.81846e-07
2.02823e-06
-3.31114e-06
3.74069e-07
3.9475e-06
-5.44427e-06
3.5788e-07
4.14919e-06
-7.16938e-06
3.25677e-07
3.31843e-06
-8.19757e-06
3.08827e-07
1.77927e-06
-8.2626e-06
3.14565e-07
-3.77058e-07
-7.09641e-06
3.30069e-07
-3.03626e-06
-4.6793e-06
3.24875e-07
-5.49005e-06
-1.71005e-06
2.54391e-07
-6.15346e-06
7.21108e-08
-3.05699e-06
-1.12149e-06
3.35227e-07
2.03065e-06
-3.03979e-06
4.13986e-07
3.87414e-06
-4.99796e-06
3.91421e-07
4.06902e-06
-6.59149e-06
3.59249e-07
3.30351e-06
-7.55197e-06
3.47449e-07
1.88674e-06
-7.63257e-06
3.6313e-07
-9.14363e-08
-6.57844e-06
3.9462e-07
-2.55152e-06
-4.36587e-06
3.9478e-07
-4.84405e-06
-1.62129e-06
2.9965e-07
-5.5391e-06
4.66321e-08
-2.81055e-06
-8.66026e-07
2.35494e-07
1.87043e-06
-2.36542e-06
2.58159e-07
3.43386e-06
-3.91465e-06
2.39196e-07
3.60943e-06
-5.19806e-06
2.20878e-07
3.02435e-06
-5.99748e-06
2.17875e-07
1.93169e-06
-6.10018e-06
2.35913e-07
3.84366e-07
-5.29391e-06
2.65994e-07
-1.55771e-06
-3.54077e-06
2.72454e-07
-3.44285e-06
-1.33057e-06
1.99264e-07
-4.16377e-06
-8.88491e-09
-2.23289e-06
-3.56485e-07
1.14256e-06
-1.03833e-06
1.91953e-06
-1.76467e-06
2.01055e-06
-2.39236e-06
1.77034e-06
-2.81394e-06
1.30929e-06
-2.90956e-06
6.28396e-07
-2.55523e-06
-2.66647e-07
-1.7096e-06
-1.22653e-06
-6.20244e-07
-1.74731e-06
-1.08665e-06
-4.70656e-07
-3.29071e-07
1.94229e-06
-1.3169e-06
-3.66639e-07
3.13242e-06
-2.20448e-06
-3.34942e-07
3.23308e-06
-3.00319e-06
-2.94544e-07
2.86359e-06
-3.62031e-06
-2.6806e-07
2.19447e-06
-3.9118e-06
-2.6756e-07
1.18745e-06
-3.66526e-06
-2.91825e-07
-2.21366e-07
-2.67887e-06
-3.11249e-07
-1.90167e-06
-1.11846e-06
-2.47282e-07
-3.06045e-06
8.24967e-09
-2.21336e-06
-1.15078e-06
-4.60954e-07
3.1531e-06
-3.0535e-06
-5.69795e-07
5.53973e-06
-4.9956e-06
-5.24383e-07
5.74097e-06
-6.6643e-06
-4.5036e-07
4.84887e-06
-7.85472e-06
-3.91347e-07
3.2454e-06
-8.30193e-06
-3.64843e-07
9.28857e-07
-7.62892e-06
-3.7412e-07
-2.14842e-06
-5.51904e-06
-3.84932e-07
-5.47904e-06
-2.33116e-06
-3.17752e-07
-7.28118e-06
-4.73832e-08
-4.50841e-06
-1.49452e-06
-3.80826e-07
3.44504e-06
-3.94519e-06
-5.02116e-07
6.25713e-06
-6.41943e-06
-4.63701e-07
6.48258e-06
-8.5055e-06
-3.89902e-07
5.32913e-06
-9.94419e-06
-3.24101e-07
3.25818e-06
-1.04272e-05
-2.78843e-07
3.05614e-07
-9.49639e-06
-2.73553e-07
-3.58294e-06
-6.80603e-06
-2.74945e-07
-7.6444e-06
-2.83956e-06
-2.37851e-07
-9.58547e-06
-6.9244e-08
-5.62825e-06
-1.62077e-06
-2.04006e-07
3.47217e-06
-4.30086e-06
-2.79266e-07
6.40474e-06
-7.00104e-06
-2.58246e-07
6.64392e-06
-9.2627e-06
-2.13795e-07
5.40398e-06
-1.07993e-05
-1.72755e-07
3.16455e-06
-1.13055e-05
-1.46249e-07
-3.45333e-09
-1.0253e-05
-1.32455e-07
-4.22988e-06
-7.30635e-06
-1.30774e-07
-8.58087e-06
-3.0135e-06
-1.1796e-07
-1.05662e-05
-4.48917e-08
-6.09485e-06
-1.65243e-06
1.02068e-12
3.45498e-06
-4.40557e-06
-2.57967e-14
6.41377e-06
-7.18143e-06
-2.87464e-13
6.66432e-06
-9.50374e-06
-1.28366e-13
5.41063e-06
-1.10795e-05
-9.83181e-14
3.13417e-06
-1.15892e-05
-1.1841e-13
-1.12597e-07
-1.05007e-05
-5.63978e-14
-4.4176e-06
-7.46673e-06
-1.75199e-15
-8.86836e-06
-3.06354e-06
1.09627e-13
-1.08795e-05
1.35924e-13
-6.24681e-06
-1.65243e-06
2.04008e-07
3.45498e-06
-4.40557e-06
2.79266e-07
6.41377e-06
-7.18143e-06
2.58245e-07
6.66432e-06
-9.50374e-06
2.13795e-07
5.41063e-06
-1.10795e-05
1.72754e-07
3.13417e-06
-1.15892e-05
1.46249e-07
-1.12597e-07
-1.05007e-05
1.32455e-07
-4.4176e-06
-7.46672e-06
1.30774e-07
-8.86836e-06
-3.06354e-06
1.1796e-07
-1.08795e-05
4.4892e-08
-6.24681e-06
-1.62077e-06
3.80828e-07
3.47217e-06
-4.30086e-06
5.02116e-07
6.40474e-06
-7.00104e-06
4.63701e-07
6.64392e-06
-9.26269e-06
3.89902e-07
5.40398e-06
-1.07993e-05
3.24101e-07
3.16455e-06
-1.13055e-05
2.78843e-07
-3.45337e-09
-1.0253e-05
2.73553e-07
-4.22988e-06
-7.30635e-06
2.74945e-07
-8.58087e-06
-3.0135e-06
2.37851e-07
-1.05662e-05
6.92442e-08
-6.09485e-06
-1.49452e-06
4.60955e-07
3.44504e-06
-3.94519e-06
5.69795e-07
6.25713e-06
-6.41943e-06
5.24383e-07
6.48258e-06
-8.5055e-06
4.50361e-07
5.32913e-06
-9.94419e-06
3.91347e-07
3.25818e-06
-1.04272e-05
3.64843e-07
3.05614e-07
-9.49639e-06
3.7412e-07
-3.58294e-06
-6.80603e-06
3.84931e-07
-7.6444e-06
-2.83956e-06
3.17751e-07
-9.58547e-06
4.73832e-08
-5.62825e-06
-1.15078e-06
3.29071e-07
3.1531e-06
-3.0535e-06
3.66639e-07
5.53973e-06
-4.99559e-06
3.34942e-07
5.74097e-06
-6.6643e-06
2.94545e-07
4.84887e-06
-7.85472e-06
2.68061e-07
3.2454e-06
-8.30193e-06
2.6756e-07
9.28857e-07
-7.62892e-06
2.91824e-07
-2.14842e-06
-5.51904e-06
3.11248e-07
-5.47904e-06
-2.33116e-06
2.47281e-07
-7.28118e-06
-8.24981e-09
-4.50841e-06
-4.70656e-07
1.94229e-06
-1.3169e-06
3.13242e-06
-2.20448e-06
3.23308e-06
-3.00319e-06
2.86359e-06
-3.62031e-06
2.19447e-06
-3.9118e-06
1.18745e-06
-3.66526e-06
-2.21365e-07
-2.67887e-06
-1.90167e-06
-1.11846e-06
-3.06045e-06
-2.21336e-06
-6.41739e-07
-4.40207e-07
3.02424e-06
-1.66886e-06
-4.84095e-07
4.64364e-06
-2.70924e-06
-4.17265e-07
4.69071e-06
-3.68797e-06
-3.21905e-07
4.16423e-06
-4.56724e-06
-2.29109e-07
3.30285e-06
-5.20449e-06
-1.58575e-07
1.98328e-06
-5.26973e-06
-1.27942e-07
-2.81903e-08
-4.28683e-06
-1.67357e-07
-2.71722e-06
-2.10852e-06
-1.98395e-07
-5.04036e-06
-2.17628e-08
-4.30011e-06
-1.52634e-06
-6.05748e-07
4.84498e-06
-3.86927e-06
-7.33564e-07
8.13212e-06
-6.20457e-06
-6.30899e-07
8.28991e-06
-8.28708e-06
-4.62633e-07
7.07211e-06
-9.983e-06
-2.88554e-07
5.00076e-06
-1.10003e-05
-1.42671e-07
1.93029e-06
-1.07743e-05
-5.31689e-08
-2.44924e-06
-8.53453e-06
-8.16043e-08
-7.80456e-06
-4.1408e-06
-1.68782e-07
-1.17045e-05
-7.06762e-08
-8.6003e-06
-1.96171e-06
-4.92222e-07
5.29322e-06
-4.98358e-06
-6.33696e-07
9.17913e-06
-7.97533e-06
-5.43276e-07
9.3867e-06
-1.05866e-05
-3.81869e-07
7.85965e-06
-1.26284e-05
-2.09532e-07
5.22091e-06
-1.37281e-05
-6.08243e-08
1.32348e-06
-1.32553e-05
4.06767e-08
-4.14952e-06
-1.03499e-05
2.58e-08
-1.06573e-05
-4.94806e-06
-7.57536e-08
-1.50803e-05
-7.10675e-08
-1.05759e-05
-2.11471e-06
-2.60394e-07
5.35505e-06
-5.41358e-06
-3.47564e-07
9.41748e-06
-8.67897e-06
-2.97055e-07
9.66309e-06
-1.15095e-05
-2.02455e-07
8.05514e-06
-1.36942e-05
-9.92495e-08
5.23893e-06
-1.48113e-05
-7.2937e-09
1.06009e-06
-1.42303e-05
5.11695e-08
-4.8214e-06
-1.10431e-05
4.29897e-08
-1.17852e-05
-5.23697e-06
-2.17348e-08
-1.64264e-05
-3.94021e-08
-1.13635e-05
-2.14945e-06
7.86424e-13
5.34404e-06
-5.53226e-06
-2.0025e-14
9.44902e-06
-8.88582e-06
-3.78504e-13
9.72083e-06
-1.17898e-05
-4.04199e-13
8.11217e-06
-1.40225e-05
-5.04461e-13
5.26756e-06
-1.51628e-05
-4.44406e-13
1.02048e-06
-1.45509e-05
-1.19251e-13
-4.9784e-06
-1.12738e-05
1.1225e-13
-1.21024e-05
-5.33236e-06
4.18871e-13
-1.68427e-05
2.4749e-13
-1.16186e-05
-2.14945e-06
2.60396e-07
5.34404e-06
-5.53226e-06
3.47564e-07
9.44902e-06
-8.88582e-06
2.97054e-07
9.72083e-06
-1.17898e-05
2.02455e-07
8.11217e-06
-1.40225e-05
9.92488e-08
5.26756e-06
-1.51628e-05
7.29308e-09
1.02048e-06
-1.45509e-05
-5.11696e-08
-4.9784e-06
-1.12738e-05
-4.29894e-08
-1.21024e-05
-5.33236e-06
2.17356e-08
-1.68427e-05
3.94027e-08
-1.16186e-05
-2.11471e-06
4.92223e-07
5.35505e-06
-5.41358e-06
6.33696e-07
9.41748e-06
-8.67897e-06
5.43276e-07
9.66309e-06
-1.15095e-05
3.81869e-07
8.05514e-06
-1.36942e-05
2.09531e-07
5.23893e-06
-1.48113e-05
6.0824e-08
1.06009e-06
-1.42303e-05
-4.06765e-08
-4.8214e-06
-1.10431e-05
-2.57995e-08
-1.17852e-05
-5.23697e-06
7.57544e-08
-1.64264e-05
7.1068e-08
-1.13635e-05
-1.96171e-06
6.05749e-07
5.29322e-06
-4.98358e-06
7.33564e-07
9.17913e-06
-7.97533e-06
6.30898e-07
9.3867e-06
-1.05866e-05
4.62633e-07
7.85965e-06
-1.26284e-05
2.88553e-07
5.22091e-06
-1.37281e-05
1.42671e-07
1.32348e-06
-1.32553e-05
5.31692e-08
-4.14952e-06
-1.03499e-05
8.16047e-08
-1.06573e-05
-4.94806e-06
1.68782e-07
-1.50803e-05
7.06764e-08
-1.05759e-05
-1.52634e-06
4.40208e-07
4.84498e-06
-3.86927e-06
4.84095e-07
8.13212e-06
-6.20457e-06
4.17265e-07
8.28991e-06
-8.28708e-06
3.21905e-07
7.07211e-06
-9.983e-06
2.29109e-07
5.00075e-06
-1.10003e-05
1.58575e-07
1.9303e-06
-1.07743e-05
1.27942e-07
-2.44924e-06
-8.53453e-06
1.67357e-07
-7.80456e-06
-4.1408e-06
1.98395e-07
-1.17045e-05
2.17632e-08
-8.6003e-06
-6.41739e-07
3.02424e-06
-1.66887e-06
4.64364e-06
-2.70924e-06
4.69071e-06
-3.68797e-06
4.16423e-06
-4.56724e-06
3.30285e-06
-5.20449e-06
1.98328e-06
-5.26973e-06
-2.81898e-08
-4.28683e-06
-2.71722e-06
-2.10852e-06
-5.04036e-06
-4.30011e-06
-9.43377e-07
-5.76568e-07
4.54418e-06
-2.13712e-06
-6.01522e-07
6.4389e-06
-3.23487e-06
-4.44336e-07
6.2328e-06
-4.2978e-06
-2.15694e-07
5.44285e-06
-5.41402e-06
4.93669e-08
4.36971e-06
-6.5179e-06
3.10255e-07
2.77691e-06
-7.18253e-06
4.99022e-07
1.37414e-07
-6.56531e-06
4.40874e-07
-3.7753e-06
-3.84375e-06
1.48668e-07
-7.91059e-06
-9.07536e-08
-8.05311e-06
-2.08116e-06
-7.73819e-07
7.12339e-06
-4.84458e-06
-8.9108e-07
1.11851e-05
-7.4094e-06
-6.57678e-07
1.10681e-05
-9.70388e-06
-2.85645e-07
9.43654e-06
-1.17591e-05
1.49806e-07
6.95555e-06
-1.33827e-05
5.89486e-07
3.27465e-06
-1.39128e-05
9.04792e-07
-2.32486e-06
-1.20842e-05
8.43408e-07
-1.00357e-05
-6.78488e-06
3.52086e-07
-1.72073e-05
-1.16928e-07
-1.5359e-05
-2.60284e-06
-6.16268e-07
7.73851e-06
-6.15839e-06
-7.56752e-07
1.26004e-05
-9.46323e-06
-5.56939e-07
1.25908e-05
-1.23269e-05
-2.20721e-07
1.06584e-05
-1.47178e-05
1.75149e-07
7.58641e-06
-1.63655e-05
5.70065e-07
2.99062e-06
-1.65806e-05
8.43977e-07
-3.87365e-06
-1.40668e-05
7.85633e-07
-1.31132e-05
-7.75594e-06
3.45688e-07
-2.13848e-05
-8.13594e-08
-1.83674e-05
-2.76948e-06
-3.21522e-07
7.82979e-06
-6.63176e-06
-4.10211e-07
1.29332e-05
-1.02328e-05
-3.01032e-07
1.30082e-05
-1.33211e-05
-1.11787e-07
1.10345e-05
-1.5834e-05
1.10963e-07
7.81609e-06
-1.74705e-05
3.30647e-07
2.936e-06
-1.75476e-05
4.76399e-07
-4.37673e-06
-1.47724e-05
4.39034e-07
-1.42138e-05
-8.10372e-06
1.96445e-07
-2.29458e-05
-3.56613e-08
-1.95129e-05
-2.7994e-06
5.44558e-13
7.82192e-06
-6.74642e-06
-1.40554e-14
1.29858e-05
-1.04371e-05
-4.19549e-13
1.31105e-05
-1.35986e-05
-5.57809e-13
1.11618e-05
-1.61589e-05
-5.99925e-13
7.93884e-06
-1.781e-05
-3.50495e-13
3.00225e-06
-1.78657e-05
6.20346e-15
-4.44633e-06
-1.50236e-05
1.34912e-13
-1.45054e-05
-8.23801e-06
2.42126e-13
-2.34319e-05
4.15485e-13
-1.98922e-05
-2.7994e-06
3.21523e-07
7.82192e-06
-6.74642e-06
4.10211e-07
1.29858e-05
-1.04371e-05
3.01032e-07
1.31105e-05
-1.35986e-05
1.11786e-07
1.11618e-05
-1.61589e-05
-1.10964e-07
7.93884e-06
-1.781e-05
-3.30647e-07
3.00225e-06
-1.78657e-05
-4.76399e-07
-4.44633e-06
-1.50236e-05
-4.39034e-07
-1.45054e-05
-8.23801e-06
-1.96445e-07
-2.34319e-05
3.56621e-08
-1.98922e-05
-2.76948e-06
6.16269e-07
7.82979e-06
-6.63176e-06
7.56752e-07
1.29332e-05
-1.02328e-05
5.56939e-07
1.30082e-05
-1.33211e-05
2.20721e-07
1.10345e-05
-1.5834e-05
-1.7515e-07
7.81609e-06
-1.74705e-05
-5.70065e-07
2.936e-06
-1.75476e-05
-8.43976e-07
-4.37673e-06
-1.47724e-05
-7.85633e-07
-1.42138e-05
-8.10372e-06
-3.45687e-07
-2.29458e-05
8.13598e-08
-1.95129e-05
-2.60284e-06
7.7382e-07
7.73851e-06
-6.15839e-06
8.9108e-07
1.26004e-05
-9.46323e-06
6.57678e-07
1.25908e-05
-1.23269e-05
2.85644e-07
1.06584e-05
-1.47178e-05
-1.49806e-07
7.58641e-06
-1.63655e-05
-5.89486e-07
2.99062e-06
-1.65806e-05
-9.04791e-07
-3.87365e-06
-1.40668e-05
-8.43407e-07
-1.31132e-05
-7.75594e-06
-3.52085e-07
-2.13848e-05
1.16928e-07
-1.83674e-05
-2.08116e-06
5.76568e-07
7.12339e-06
-4.84458e-06
6.01522e-07
1.11851e-05
-7.4094e-06
4.44336e-07
1.10681e-05
-9.70388e-06
2.15694e-07
9.43654e-06
-1.17591e-05
-4.9367e-08
6.95555e-06
-1.33827e-05
-3.10255e-07
3.27465e-06
-1.39128e-05
-4.99021e-07
-2.32486e-06
-1.20842e-05
-4.40873e-07
-1.00357e-05
-6.78488e-06
-1.48667e-07
-1.72073e-05
9.07536e-08
-1.5359e-05
-9.43377e-07
4.54418e-06
-2.13712e-06
6.4389e-06
-3.23487e-06
6.2328e-06
-4.2978e-06
5.44285e-06
-5.41402e-06
4.3697e-06
-6.5179e-06
2.77691e-06
-7.18253e-06
1.37415e-07
-6.56531e-06
-3.7753e-06
-3.84375e-06
-7.91059e-06
-8.05311e-06
-1.57337e-06
-7.56755e-07
6.87431e-06
-2.75403e-06
-7.21468e-07
8.34103e-06
-3.5721e-06
-3.79578e-07
7.43045e-06
-4.37448e-06
9.17099e-08
6.15352e-06
-5.45527e-06
6.47933e-07
4.80256e-06
-6.93907e-06
1.26044e-06
3.00026e-06
-8.46603e-06
1.76069e-06
-9.6313e-08
-8.81242e-06
1.72016e-06
-5.14908e-06
-6.12487e-06
9.15574e-07
-1.15137e-05
-1.97757e-07
-1.39802e-05
-3.00613e-06
-9.79927e-07
1.03527e-05
-5.90407e-06
-1.04258e-06
1.44042e-05
-8.07982e-06
-5.71266e-07
1.34355e-05
-9.84091e-06
1.35102e-07
1.11542e-05
-1.15242e-05
9.81193e-07
8.30555e-06
-1.32263e-05
1.87572e-06
4.36147e-06
-1.44953e-05
2.54212e-06
-1.8373e-06
-1.38952e-05
2.4151e-06
-1.13308e-05
-9.14233e-06
1.21837e-06
-2.22629e-05
-2.57024e-07
-2.44421e-05
-3.57824e-06
-7.59683e-07
1.10965e-05
-7.31068e-06
-8.71485e-07
1.61617e-05
-1.01812e-05
-4.8888e-07
1.53789e-05
-1.2354e-05
1.15079e-07
1.28513e-05
-1.40998e-05
8.35936e-07
9.47741e-06
-1.54995e-05
1.57724e-06
4.68888e-06
-1.62025e-05
2.08574e-06
-2.71434e-06
-1.49801e-05
1.9226e-06
-1.38431e-05
-9.69246e-06
9.23612e-07
-2.63777e-05
-1.80357e-07
-2.81365e-05
-3.72938e-06
-3.8987e-07
1.11894e-05
-7.7563e-06
-4.67848e-07
1.65565e-05
-1.08877e-05
-2.66071e-07
1.59169e-05
-1.32061e-05
6.13802e-08
1.34065e-05
-1.49499e-05
4.51584e-07
9.94425e-06
-1.62017e-05
8.44315e-07
4.92075e-06
-1.66853e-05
1.09873e-06
-2.90616e-06
-1.52873e-05
9.92691e-07
-1.46819e-05
-9.89995e-06
4.65583e-07
-2.78751e-05
-7.81224e-08
-2.95151e-05
-3.74144e-06
2.81417e-13
1.11735e-05
-7.83528e-06
-5.17684e-14
1.66118e-05
-1.10366e-05
-5.22803e-13
1.60457e-05
-1.34008e-05
-7.56173e-13
1.35874e-05
-1.51558e-05
-7.26934e-13
1.01454e-05
-1.63907e-05
-3.51705e-13
5.08153e-06
-1.68513e-05
-2.1102e-14
-2.88705e-06
-1.54427e-05
1.80603e-14
-1.49214e-05
-1.00272e-05
2.03397e-13
-2.83818e-05
5.01209e-13
-2.99976e-05
-3.74144e-06
3.8987e-07
1.11735e-05
-7.83528e-06
4.67848e-07
1.66118e-05
-1.10366e-05
2.6607e-07
1.60457e-05
-1.34008e-05
-6.13816e-08
1.35874e-05
-1.51558e-05
-4.51585e-07
1.01454e-05
-1.63907e-05
-8.44315e-07
5.08153e-06
-1.68513e-05
-1.09873e-06
-2.88705e-06
-1.54427e-05
-9.92691e-07
-1.49214e-05
-1.00272e-05
-4.65583e-07
-2.83818e-05
7.81233e-08
-2.99976e-05
-3.72938e-06
7.59684e-07
1.11894e-05
-7.7563e-06
8.71485e-07
1.65565e-05
-1.08877e-05
4.88879e-07
1.59169e-05
-1.32061e-05
-1.1508e-07
1.34065e-05
-1.49499e-05
-8.35937e-07
9.94425e-06
-1.62017e-05
-1.57724e-06
4.92075e-06
-1.66853e-05
-2.08574e-06
-2.90616e-06
-1.52873e-05
-1.9226e-06
-1.46819e-05
-9.89995e-06
-9.23612e-07
-2.78751e-05
1.80357e-07
-2.95151e-05
-3.57824e-06
9.79927e-07
1.10965e-05
-7.31068e-06
1.04258e-06
1.61617e-05
-1.01812e-05
5.71266e-07
1.53789e-05
-1.2354e-05
-1.35103e-07
1.28513e-05
-1.40998e-05
-9.81194e-07
9.47741e-06
-1.54995e-05
-1.87572e-06
4.68889e-06
-1.62025e-05
-2.54211e-06
-2.71434e-06
-1.49801e-05
-2.4151e-06
-1.38431e-05
-9.69246e-06
-1.21837e-06
-2.63777e-05
2.57025e-07
-2.81365e-05
-3.00613e-06
7.56755e-07
1.03527e-05
-5.90407e-06
7.21468e-07
1.44041e-05
-8.07982e-06
3.79578e-07
1.34355e-05
-9.84091e-06
-9.17101e-08
1.11542e-05
-1.15242e-05
-6.47933e-07
8.30555e-06
-1.32263e-05
-1.26044e-06
4.36147e-06
-1.44953e-05
-1.76069e-06
-1.8373e-06
-1.38952e-05
-1.72016e-06
-1.13308e-05
-9.14233e-06
-9.15574e-07
-2.22629e-05
1.97757e-07
-2.44421e-05
-1.57337e-06
6.8743e-06
-2.75403e-06
8.34103e-06
-3.5721e-06
7.43044e-06
-4.37448e-06
6.15352e-06
-5.45527e-06
4.80256e-06
-6.93907e-06
3.00026e-06
-8.46603e-06
-9.63128e-08
-8.81242e-06
-5.14908e-06
-6.12487e-06
-1.15137e-05
-1.39802e-05
-2.82663e-06
-1.03856e-06
1.07395e-05
-3.22526e-06
-9.23857e-07
9.66352e-06
-2.87128e-06
-3.42637e-07
7.41911e-06
-2.61894e-06
4.15254e-07
5.48593e-06
-3.0104e-06
1.27998e-06
3.91405e-06
-4.38312e-06
2.24578e-06
2.12721e-06
-6.74791e-06
3.11609e-06
-8.47616e-07
-8.69282e-06
3.14884e-06
-6.35301e-06
-7.5103e-06
1.69141e-06
-1.43876e-05
-6.76783e-07
-2.08137e-05
-4.79841e-06
-1.28299e-06
1.53955e-05
-6.55832e-06
-1.29859e-06
1.65388e-05
-6.68401e-06
-5.55051e-07
1.37736e-05
-6.29426e-06
4.88049e-07
1.06917e-05
-6.12973e-06
1.70637e-06
7.71463e-06
-6.68332e-06
2.99903e-06
4.1618e-06
-8.11402e-06
4.0304e-06
-1.3209e-06
-9.49081e-06
3.85391e-06
-1.06591e-05
-8.00042e-06
1.80075e-06
-2.38626e-05
-8.84662e-07
-3.22346e-05
-5.43925e-06
-9.60482e-07
1.62133e-05
-7.90683e-06
-1.06239e-06
1.83931e-05
-8.41432e-06
-4.94897e-07
1.58263e-05
-7.98193e-06
3.48288e-07
1.25587e-05
-7.32932e-06
1.33369e-06
9.19747e-06
-7.01932e-06
2.35277e-06
5.02515e-06
-7.45341e-06
3.09375e-06
-1.3436e-06
-8.32213e-06
2.84148e-06
-1.1962e-05
-7.15703e-06
1.22625e-06
-2.69683e-05
-5.98725e-07
-3.55795e-05
-5.55991e-06
-4.82972e-07
1.62718e-05
-8.24461e-06
-5.63286e-07
1.87421e-05
-8.89027e-06
-2.7619e-07
1.63438e-05
-8.43919e-06
1.65296e-07
1.31384e-05
-7.58838e-06
6.83927e-07
9.74321e-06
-6.93854e-06
1.21156e-06
5.41212e-06
-7.04263e-06
1.5749e-06
-1.28322e-06
-7.86621e-06
1.41525e-06
-1.24321e-05
-6.97624e-06
5.94786e-07
-2.81336e-05
-2.58696e-07
-3.68314e-05
-5.5452e-06
-8.07214e-14
1.62357e-05
-8.25747e-06
-3.50699e-13
1.87608e-05
-8.92838e-06
-8.48763e-13
1.64404e-05
-8.47272e-06
-1.05759e-12
1.32971e-05
-7.57716e-06
-8.75271e-13
9.93377e-06
-6.86184e-06
-2.26414e-13
5.57777e-06
-6.93647e-06
2.24456e-13
-1.23752e-06
-7.83091e-06
7.99365e-14
-1.26117e-05
-7.04118e-06
3.0911e-13
-2.85768e-05
6.23876e-13
-3.72974e-05
-5.5452e-06
4.82971e-07
1.62357e-05
-8.25747e-06
5.63285e-07
1.87608e-05
-8.92838e-06
2.76188e-07
1.64404e-05
-8.47272e-06
-1.65298e-07
1.32971e-05
-7.57716e-06
-6.83929e-07
9.93377e-06
-6.86184e-06
-1.21156e-06
5.57777e-06
-6.93647e-06
-1.57489e-06
-1.23752e-06
-7.83091e-06
-1.41525e-06
-1.26117e-05
-7.04118e-06
-5.94785e-07
-2.85768e-05
2.58698e-07
-3.72974e-05
-5.55991e-06
9.60482e-07
1.62718e-05
-8.24461e-06
1.06239e-06
1.87421e-05
-8.89027e-06
4.94895e-07
1.63438e-05
-8.43919e-06
-3.48289e-07
1.31384e-05
-7.58838e-06
-1.3337e-06
9.74321e-06
-6.93855e-06
-2.35277e-06
5.41212e-06
-7.04263e-06
-3.09375e-06
-1.28322e-06
-7.86621e-06
-2.84148e-06
-1.24321e-05
-6.97624e-06
-1.22625e-06
-2.81336e-05
5.98726e-07
-3.68314e-05
-5.43925e-06
1.28299e-06
1.62133e-05
-7.90683e-06
1.29859e-06
1.83931e-05
-8.41432e-06
5.5505e-07
1.58263e-05
-7.98193e-06
-4.8805e-07
1.25587e-05
-7.32932e-06
-1.70637e-06
9.19747e-06
-7.01932e-06
-2.99903e-06
5.02515e-06
-7.45341e-06
-4.0304e-06
-1.3436e-06
-8.32213e-06
-3.85391e-06
-1.1962e-05
-7.15703e-06
-1.80075e-06
-2.69683e-05
8.84662e-07
-3.55795e-05
-4.79841e-06
1.03856e-06
1.53955e-05
-6.55832e-06
9.23857e-07
1.65388e-05
-6.68401e-06
3.42637e-07
1.37736e-05
-6.29426e-06
-4.15255e-07
1.06917e-05
-6.12973e-06
-1.27998e-06
7.71463e-06
-6.68332e-06
-2.24578e-06
4.1618e-06
-8.11402e-06
-3.11609e-06
-1.3209e-06
-9.49081e-06
-3.14884e-06
-1.06591e-05
-8.00042e-06
-1.69141e-06
-2.38626e-05
6.76783e-07
-3.22346e-05
-2.82663e-06
1.07395e-05
-3.22526e-06
9.66351e-06
-2.87128e-06
7.41911e-06
-2.61894e-06
5.48592e-06
-3.0104e-06
3.91405e-06
-4.38312e-06
2.12721e-06
-6.74791e-06
-8.47616e-07
-8.69282e-06
-6.35301e-06
-7.5103e-06
-1.43876e-05
-2.08137e-05
-2.87644e-06
-1.69791e-06
1.53138e-05
-2.03917e-07
-1.55018e-06
8.54117e-06
3.266e-06
-7.75144e-07
4.72433e-06
5.71933e-06
1.13046e-07
2.91956e-06
6.83063e-06
1.08856e-06
1.71419e-06
6.22057e-06
2.14193e-06
5.95337e-07
3.43176e-06
3.2467e-06
-1.3055e-06
-9.60107e-07
3.37661e-06
-5.33774e-06
-3.57184e-06
1.34412e-06
-1.312e-05
-2.25695e-06
-2.21286e-05
-5.19108e-06
-1.86527e-06
2.0754e-05
-1.89305e-06
-2.00752e-06
1.36981e-05
3.13137e-06
-1.18169e-06
9.15573e-06
7.5673e-06
-4.00172e-08
6.40881e-06
1.08927e-05
1.20041e-06
4.27734e-06
1.24912e-05
2.53936e-06
2.16592e-06
1.14608e-05
3.79262e-06
-8.36395e-07
7.45667e-06
3.74363e-06
-7.022e-06
2.29803e-06
1.19671e-06
-1.85566e-05
-2.17128e-06
-3.00222e-05
-5.9005e-06
-1.30162e-06
2.15501e-05
-2.79379e-06
-1.5532e-06
1.4832e-05
2.38806e-06
-9.95652e-07
1.04584e-05
7.42864e-06
-1.5513e-07
7.6332e-06
1.17181e-05
8.11813e-07
5.29656e-06
1.45767e-05
1.83566e-06
2.87027e-06
1.47486e-05
2.73538e-06
-4.58219e-07
1.1231e-05
2.65654e-06
-7.35732e-06
4.53563e-06
8.48542e-07
-1.99247e-05
-1.28856e-06
-3.19266e-05
-5.96263e-06
-6.30924e-07
2.15637e-05
-2.91404e-06
-7.99317e-07
1.49396e-05
2.28213e-06
-5.35947e-07
1.06879e-05
7.46231e-06
-1.19201e-07
7.92233e-06
1.20498e-05