/*--------------------------------*- C++ -*----------------------------------*\
  =========                 |
  \\      /  F ield         | OpenFOAM: The Open Source CFD Toolbox
   \\    /   O peration     | Website:  https://openfoam.org
    \\  /    A nd           | Version:  9
     \\/     M anipulation  |
\*---------------------------------------------------------------------------*/
FoamFile
{
    format      ascii;
    class       volVectorField;
    location    "0.22";
    object      U;
}
// * * * * * * * * * * * * * * * * * * * * * * * * * * * * * * * * * * * * * //

dimensions      [0 1 -1 0 0 0 0];

internalField   nonuniform List<vector> 
1000
(
(-0.000206746 -0.00028169 0.000409106)
(-0.00203033 -0.000141524 0.00105308)
(-0.00530298 -7.4284e-05 0.00122117)
(-0.00836727 -0.000131768 0.00113815)
(-0.0106662 -0.000300961 0.000891789)
(-0.0116171 -0.000548581 0.000472359)
(-0.0106711 -0.000805726 -0.000112422)
(-0.00764164 -0.000942615 -0.000701011)
(-0.00310083 -0.000787738 -0.000871767)
(-0.000289149 -0.000199024 -0.000195085)
(-0.00051576 -0.000817489 0.000658304)
(-0.00408765 -0.000710237 0.00202287)
(-0.0102442 -0.000605618 0.00236779)
(-0.0158935 -0.000709048 0.00209551)
(-0.0199753 -0.00103659 0.00141726)
(-0.0215072 -0.00153367 0.000355745)
(-0.0195994 -0.00204173 -0.00101022)
(-0.0139715 -0.00227424 -0.00222235)
(-0.00573215 -0.00189348 -0.00234274)
(-0.000598815 -0.000623261 -0.000548017)
(-0.00062812 -0.00103826 0.000540446)
(-0.00498416 -0.00118499 0.00217093)
(-0.0124667 -0.00113198 0.00259679)
(-0.0192754 -0.00119589 0.0022367)
(-0.0241373 -0.00144708 0.00135017)
(-0.0258828 -0.00185303 -1.7971e-05)
(-0.0234512 -0.0022597 -0.00175589)
(-0.0165366 -0.00240283 -0.00322308)
(-0.00654239 -0.00200483 -0.00320207)
(-0.000534847 -0.000826009 -0.000730616)
(-0.00063498 -0.00079172 0.000380288)
(-0.00528409 -0.000991159 0.00206755)
(-0.0133358 -0.000972115 0.00252827)
(-0.0206495 -0.000994872 0.00215288)
(-0.0258535 -0.00112706 0.00120632)
(-0.0276837 -0.00135253 -0.000267211)
(-0.0249933 -0.00157584 -0.00213769)
(-0.0174716 -0.00163763 -0.003688)
(-0.00667709 -0.00137734 -0.00357146)
(-0.000392443 -0.000633694 -0.000779842)
(-0.000621548 -0.000289994 0.000290292)
(-0.0053548 -0.000376633 0.00197896)
(-0.0136044 -0.000372954 0.00245414)
(-0.0211009 -0.000376405 0.00208457)
(-0.026433 -0.000414149 0.00113149)
(-0.0282965 -0.000482132 -0.000365624)
(-0.0255066 -0.000550031 -0.00226974)
(-0.0177522 -0.000565936 -0.00384127)
(-0.00665894 -0.000479213 -0.0036872)
(-0.000306398 -0.000232711 -0.000786048)
(-0.000621548 0.00029004 0.000290293)
(-0.0053548 0.000376664 0.00197896)
(-0.0136044 0.000372977 0.00245414)
(-0.0211009 0.000376423 0.00208457)
(-0.026433 0.000414162 0.00113149)
(-0.0282965 0.00048214 -0.000365625)
(-0.0255066 0.000550035 -0.00226974)
(-0.0177522 0.000565936 -0.00384127)
(-0.00665894 0.00047921 -0.00368721)
(-0.000306399 0.000232702 -0.000786049)
(-0.000634979 0.00079177 0.000380291)
(-0.00528409 0.000991188 0.00206756)
(-0.0133358 0.000972137 0.00252828)
(-0.0206495 0.000994889 0.00215288)
(-0.0258535 0.00112708 0.00120632)
(-0.0276837 0.00135254 -0.000267214)
(-0.0249933 0.00157584 -0.00213769)
(-0.0174716 0.00163763 -0.003688)
(-0.00667709 0.00137734 -0.00357147)
(-0.000392443 0.000633684 -0.000779844)
(-0.000628114 0.0010383 0.000540455)
(-0.00498416 0.001185 0.00217095)
(-0.0124667 0.001132 0.0025968)
(-0.0192754 0.00119591 0.0022367)
(-0.0241373 0.00144709 0.00135016)
(-0.0258829 0.00185304 -1.79746e-05)
(-0.0234512 0.00225971 -0.00175589)
(-0.0165366 0.00240283 -0.00322309)
(-0.00654239 0.00200483 -0.00320207)
(-0.000534846 0.000826001 -0.000730618)
(-0.000515727 0.000817503 0.000658342)
(-0.00408764 0.000710224 0.0020229)
(-0.0102442 0.000605628 0.00236781)
(-0.0158936 0.000709059 0.00209551)
(-0.0199753 0.0010366 0.00141726)
(-0.0215072 0.00153368 0.000355742)
(-0.0195994 0.00204174 -0.00101022)
(-0.0139715 0.00227425 -0.00222235)
(-0.00573215 0.00189349 -0.00234275)
(-0.000598814 0.00062326 -0.000548019)
(-0.000206711 0.000281653 0.000409144)
(-0.00203034 0.000141488 0.00105311)
(-0.00530301 7.42809e-05 0.00122118)
(-0.00836732 0.00013177 0.00113815)
(-0.0106663 0.000300964 0.000891789)
(-0.0116172 0.000548583 0.000472359)
(-0.0106711 0.000805729 -0.000112422)
(-0.00764165 0.000942619 -0.00070101)
(-0.00310084 0.000787744 -0.000871769)
(-0.000289149 0.000199027 -0.000195084)
(-0.000816158 -0.000834182 0.00300245)
(-0.00459598 -0.000834992 0.0056916)
(-0.0105208 -0.000745252 0.00618776)
(-0.0159474 -0.000722272 0.00552136)
(-0.0199637 -0.000796447 0.00406046)
(-0.0216552 -0.000963804 0.00183474)
(-0.0201298 -0.00116619 -0.00101833)
(-0.0149381 -0.0012194 -0.00379158)
(-0.00684317 -0.000886095 -0.00483531)
(-0.00112408 4.30217e-05 -0.00224424)
(-0.00207585 -0.00204415 0.00489076)
(-0.010348 -0.0023071 0.0104251)
(-0.0226417 -0.00215158 0.0114259)
(-0.03361 -0.00208554 0.00971407)
(-0.041351 -0.00223563 0.0061616)
(-0.0442128 -0.00259484 0.0010034)
(-0.0406746 -0.0030149 -0.00523323)
(-0.0300764 -0.00308193 -0.0107209)
(-0.0140856 -0.00231589 -0.0117841)
(-0.00253667 -0.000330687 -0.00480603)
(-0.0026586 -0.00222871 0.00501594)
(-0.0131396 -0.00283045 0.0115798)
(-0.0285717 -0.00273348 0.012768)
(-0.0421554 -0.00263355 0.0105201)
(-0.0515495 -0.002736 0.00590451)
(-0.0548013 -0.00304552 -0.000723489)
(-0.0501219 -0.00339385 -0.00860763)
(-0.0367952 -0.00340093 -0.0152371)
(-0.0169981 -0.00265165 -0.0158387)
(-0.00294143 -0.00081713 -0.00612674)
(-0.00283178 -0.0015715 0.00473051)
(-0.0141879 -0.00212446 0.0115432)
(-0.03097 -0.00208346 0.0128033)
(-0.0456718 -0.00199311 0.0103785)
(-0.0557648 -0.00202709 0.00537308)
(-0.0591532 -0.00219739 -0.00182646)
(-0.0539288 -0.002382 -0.0103584)
(-0.0393656 -0.00236039 -0.0174043)
(-0.0178866 -0.00188333 -0.0176848)
(-0.00292672 -0.000719201 -0.00665937)
(-0.00285634 -0.000555135 0.00452522)
(-0.0144763 -0.000771909 0.0113644)
(-0.0317227 -0.000762071 0.0126563)
(-0.0468179 -0.000725714 0.0102028)
(-0.0571629 -0.000729121 0.00510205)
(-0.0606014 -0.000778578 -0.00225946)
(-0.0551767 -0.000832476 -0.0109846)
(-0.040163 -0.000821091 -0.0181559)
(-0.0180819 -0.000664409 -0.0183123)
(-0.00286208 -0.000278529 -0.00682516)
(-0.00285634 0.000555168 0.00452522)
(-0.0144763 0.000771917 0.0113644)
(-0.0317227 0.000762075 0.0126563)
(-0.0468179 0.000725722 0.0102028)
(-0.0571629 0.000729132 0.00510204)
(-0.0606014 0.00077859 -0.00225946)
(-0.0551767 0.000832488 -0.0109846)
(-0.040163 0.000821102 -0.0181559)
(-0.0180819 0.000664415 -0.0183123)
(-0.00286208 0.000278527 -0.00682516)
(-0.00283177 0.00157153 0.00473051)
(-0.0141879 0.00212447 0.0115432)
(-0.0309699 0.00208346 0.0128033)
(-0.0456718 0.00199312 0.0103785)
(-0.0557648 0.0020271 0.00537308)
(-0.0591532 0.0021974 -0.00182647)
(-0.0539288 0.00238201 -0.0103584)
(-0.0393656 0.0023604 -0.0174043)
(-0.0178866 0.00188333 -0.0176848)
(-0.00292672 0.0007192 -0.00665937)
(-0.00265859 0.00222873 0.00501594)
(-0.0131396 0.00283044 0.0115798)
(-0.0285717 0.00273347 0.012768)
(-0.0421554 0.00263355 0.0105201)
(-0.0515495 0.00273601 0.00590451)
(-0.0548013 0.00304553 -0.000723498)
(-0.0501219 0.00339386 -0.00860764)
(-0.0367952 0.00340095 -0.0152372)
(-0.0169981 0.00265166 -0.0158388)
(-0.00294143 0.00081713 -0.00612674)
(-0.00207581 0.00204413 0.00489078)
(-0.010348 0.00230706 0.0104251)
(-0.0226417 0.00215157 0.0114259)
(-0.03361 0.00208554 0.00971407)
(-0.041351 0.00223564 0.00616159)
(-0.0442128 0.00259485 0.00100339)
(-0.0406746 0.00301491 -0.00523324)
(-0.0300764 0.00308195 -0.0107209)
(-0.0140856 0.0023159 -0.0117841)
(-0.00253667 0.000330689 -0.00480602)
(-0.000816123 0.000834144 0.00300244)
(-0.00459597 0.000834956 0.00569162)
(-0.0105208 0.00074524 0.00618776)
(-0.0159474 0.000722272 0.00552135)
(-0.0199637 0.000796451 0.00406046)
(-0.0216552 0.000963809 0.00183474)
(-0.0201298 0.0011662 -0.00101833)
(-0.0149381 0.00121941 -0.00379157)
(-0.00684317 0.000886101 -0.00483531)
(-0.00112408 -4.30195e-05 -0.00224423)
(-0.00125816 -0.00133438 0.00814381)
(-0.00641118 -0.00144836 0.0139913)
(-0.0141237 -0.00132914 0.0147809)
(-0.0211655 -0.00122711 0.0130084)
(-0.0266198 -0.00121774 0.00949188)
(-0.0294447 -0.00133321 0.00429921)
(-0.0283518 -0.00152363 -0.00233936)
(-0.0221965 -0.00157207 -0.00904592)
(-0.0111938 -0.00111845 -0.012245)
(-0.00227772 0.000196353 -0.00705297)
(-0.00327436 -0.00316355 0.0133047)
(-0.0150486 -0.00373611 0.0251315)
(-0.031743 -0.00349776 0.0266781)
(-0.0465315 -0.00322345 0.0223486)
(-0.0573719 -0.00315648 0.0140449)
(-0.0623268 -0.00336399 0.00227444)
(-0.0591547 -0.00372439 -0.0119651)
(-0.0459591 -0.00376047 -0.0251028)
(-0.0235009 -0.00277742 -0.0290852)
(-0.00499817 -0.000108614 -0.0144802)
(-0.00426235 -0.00331414 0.0143153)
(-0.0194229 -0.00429504 0.02828)
(-0.040697 -0.00409649 0.0300301)
(-0.0592513 -0.00374392 0.0243559)
(-0.0725351 -0.00358104 0.0135852)
(-0.078261 -0.00368393 -0.00152261)
(-0.0737887 -0.0039225 -0.0194827)
(-0.0569184 -0.00388183 -0.0354008)
(-0.0287936 -0.00299997 -0.0387893)
(-0.00594931 -0.000716716 -0.0182634)
(-0.00458495 -0.00226759 0.0141673)
(-0.0211107 -0.00309955 0.0286929)
(-0.0443615 -0.00298212 0.0305095)
(-0.064523 -0.00269981 0.0243417)
(-0.078836 -0.00253026 0.012623)
(-0.084855 -0.00253524 -0.00379012)
(-0.0797645 -0.00261921 -0.0232836)
(-0.0612406 -0.00256133 -0.040284)
(-0.0306141 -0.00203764 -0.0432152)
(-0.0061128 -0.000671167 -0.0198881)
(-0.00464501 -0.000787561 0.0139395)
(-0.0215833 -0.00110379 0.0285564)
(-0.045506 -0.00106602 0.0304116)
(-0.0662245 -0.000959396 0.0241337)
(-0.0809038 -0.000888057 0.0121582)
(-0.0870319 -0.000875876 -0.00464841)
(-0.0817256 -0.000889995 -0.0246055)
(-0.0626188 -0.000865797 -0.041955)
(-0.0311104 -0.000701431 -0.0447242)
(-0.00609757 -0.000264579 -0.0204279)
(-0.00464501 0.000787588 0.0139395)
(-0.0215833 0.00110379 0.0285564)
(-0.045506 0.00106601 0.0304116)
(-0.0662245 0.000959399 0.0241337)
(-0.0809038 0.000888062 0.0121582)
(-0.0870319 0.000875882 -0.00464842)
(-0.0817256 0.000890001 -0.0246055)
(-0.0626188 0.000865802 -0.041955)
(-0.0311104 0.000701433 -0.0447242)
(-0.00609757 0.000264579 -0.0204279)
(-0.00458494 0.00226762 0.0141673)
(-0.0211107 0.00309955 0.0286929)
(-0.0443615 0.00298212 0.0305095)
(-0.064523 0.00269981 0.0243417)
(-0.078836 0.00253027 0.012623)
(-0.084855 0.00253525 -0.00379013)
(-0.0797644 0.00261922 -0.0232836)
(-0.0612406 0.00256133 -0.040284)
(-0.0306141 0.00203764 -0.0432152)
(-0.0061128 0.000671168 -0.0198881)
(-0.00426234 0.00331416 0.0143153)
(-0.0194229 0.00429503 0.02828)
(-0.040697 0.00409649 0.0300301)
(-0.0592513 0.00374392 0.0243559)
(-0.0725351 0.00358105 0.0135852)
(-0.078261 0.00368394 -0.00152262)
(-0.0737887 0.0039225 -0.0194828)
(-0.0569184 0.00388183 -0.0354008)
(-0.0287936 0.00299997 -0.0387893)
(-0.00594931 0.000716715 -0.0182634)
(-0.00327435 0.00316356 0.0133047)
(-0.0150485 0.00373609 0.0251315)
(-0.031743 0.00349775 0.0266781)
(-0.0465315 0.00322346 0.0223486)
(-0.0573719 0.00315649 0.0140449)
(-0.0623268 0.00336399 0.00227442)
(-0.0591547 0.00372439 -0.0119651)
(-0.0459591 0.00376047 -0.0251028)
(-0.0235009 0.00277742 -0.0290852)
(-0.00499817 0.000108611 -0.0144802)
(-0.00125815 0.00133438 0.00814379)
(-0.00641118 0.00144834 0.0139913)
(-0.0141237 0.00132914 0.0147809)
(-0.0211655 0.00122711 0.0130084)
(-0.0266198 0.00121775 0.00949188)
(-0.0294447 0.00133322 0.00429921)
(-0.0283518 0.00152363 -0.00233936)
(-0.0221965 0.00157207 -0.00904592)
(-0.0111938 0.00111845 -0.012245)
(-0.00227772 -0.000196355 -0.00705295)
(-0.00176033 -0.00188206 0.0150451)
(-0.00830677 -0.00208597 0.0247358)
(-0.0177281 -0.00189715 0.0257403)
(-0.0264067 -0.00167692 0.022725)
(-0.0336946 -0.0015492 0.017067)
(-0.0385834 -0.00158594 0.00864245)
(-0.0392607 -0.00177632 -0.0026866)
(-0.03321 -0.0019217 -0.0152021)
(-0.019049 -0.00148681 -0.0228331)
(-0.00481032 0.000191988 -0.0152176)
(-0.00452811 -0.00439393 0.0244774)
(-0.0197419 -0.00522711 0.0439313)
(-0.0406457 -0.00479368 0.0458765)
(-0.0593044 -0.00417017 0.0385471)
(-0.0740479 -0.00372257 0.0250732)
(-0.0829071 -0.00361048 0.00580199)
(-0.0826123 -0.00382782 -0.0185893)
(-0.0687784 -0.00399722 -0.0432784)
(-0.0394313 -0.00319613 -0.0542723)
(-0.00992883 -0.000121064 -0.0309461)
(-0.00589076 -0.00451459 0.0266708)
(-0.0255829 -0.00582655 0.0495972)
(-0.0524278 -0.00538089 0.0517467)
(-0.0760126 -0.00456609 0.0421882)
(-0.0941892 -0.00386737 0.0247239)
(-0.104601 -0.00345409 -2.30656e-05)
(-0.103341 -0.00343021 -0.030718)
(-0.0852313 -0.00346891 -0.0607733)
(-0.0483276 -0.00294333 -0.071912)
(-0.0118479 -0.000705911 -0.0387793)
(-0.00633436 -0.00303746 0.0267759)
(-0.0278174 -0.00411064 0.0506619)
(-0.0572086 -0.00380316 0.0528939)
(-0.0828755 -0.00316212 0.0425443)
(-0.102467 -0.00257087 0.0235779)
(-0.11354 -0.00216057 -0.00331252)
(-0.111839 -0.00202502 -0.0364876)
(-0.0917843 -0.00201298 -0.0686634)
(-0.0515909 -0.00179609 -0.0796665)
(-0.0123786 -0.000623737 -0.04211)
(-0.00641434 -0.00104423 0.0265753)
(-0.0284241 -0.00144567 0.0506536)
(-0.0586624 -0.00133812 0.0529552)
(-0.0850396 -0.00109986 0.0424474)
(-0.105142 -0.000875985 0.0231096)
(-0.116451 -0.000721836 -0.00435768)
(-0.11461 -0.000640875 -0.0383095)
(-0.0939168 -0.000630632 -0.0711993)
(-0.0525924 -0.000582388 -0.0822076)
(-0.0124938 -0.000238277 -0.0432051)
(-0.00641434 0.00104425 0.0265753)
(-0.0284241 0.00144567 0.0506536)
(-0.0586624 0.00133812 0.0529552)
(-0.0850396 0.00109986 0.0424474)
(-0.105142 0.000875983 0.0231096)
(-0.116451 0.000721834 -0.00435768)
(-0.11461 0.000640874 -0.0383095)
(-0.0939168 0.000630632 -0.0711993)
(-0.0525924 0.000582391 -0.0822076)
(-0.0124938 0.00023828 -0.0432051)
(-0.00633436 0.00303748 0.0267759)
(-0.0278174 0.00411064 0.0506619)
(-0.0572086 0.00380316 0.0528939)
(-0.0828755 0.00316212 0.0425443)
(-0.102467 0.00257087 0.0235779)
(-0.11354 0.00216056 -0.00331253)
(-0.111839 0.00202502 -0.0364876)
(-0.0917843 0.00201298 -0.0686634)
(-0.0515909 0.00179609 -0.0796665)
(-0.0123786 0.00062374 -0.04211)
(-0.00589075 0.00451461 0.0266707)
(-0.0255829 0.00582654 0.0495972)
(-0.0524278 0.00538089 0.0517467)
(-0.0760126 0.00456609 0.0421882)
(-0.0941892 0.00386737 0.0247239)
(-0.104601 0.00345409 -2.3072e-05)
(-0.103341 0.00343021 -0.030718)
(-0.0852313 0.0034689 -0.0607733)
(-0.0483276 0.00294333 -0.071912)
(-0.0118479 0.000705912 -0.0387793)
(-0.0045281 0.00439393 0.0244774)
(-0.0197419 0.00522711 0.0439313)
(-0.0406457 0.00479368 0.0458765)
(-0.0593044 0.00417017 0.0385471)
(-0.0740479 0.00372257 0.0250732)
(-0.0829071 0.00361047 0.00580198)
(-0.0826123 0.00382782 -0.0185893)
(-0.0687784 0.00399722 -0.0432784)
(-0.0394313 0.00319613 -0.0542723)
(-0.00992882 0.000121063 -0.0309461)
(-0.00176033 0.00188205 0.0150451)
(-0.00830678 0.00208597 0.0247358)
(-0.0177281 0.00189715 0.0257403)
(-0.0264067 0.00167692 0.022725)
(-0.0336946 0.0015492 0.017067)
(-0.0385835 0.00158594 0.00864245)
(-0.0392607 0.00177632 -0.00268659)
(-0.03321 0.0019217 -0.0152021)
(-0.019049 0.0014868 -0.0228331)
(-0.00481032 -0.000191989 -0.0152175)
(-0.0026338 -0.00254124 0.0242962)
(-0.0109491 -0.00278565 0.0383207)
(-0.0220337 -0.00239718 0.0392399)
(-0.0322695 -0.00187771 0.0348608)
(-0.0417132 -0.0014054 0.0272084)
(-0.049752 -0.0010987 0.0155675)
(-0.0540724 -0.00105441 -0.00139813)
(-0.0501386 -0.00136244 -0.0224285)
(-0.0334762 -0.00140492 -0.0386665)
(-0.0103504 -6.40828e-05 -0.0301583)
(-0.00637096 -0.00583354 0.039136)
(-0.025659 -0.00681594 0.0673575)
(-0.0508401 -0.00587011 0.0693833)
(-0.0733771 -0.004425 0.0589307)
(-0.0926596 -0.00298187 0.0404908)
(-0.107152 -0.00182975 0.0134773)
(-0.112576 -0.00120693 -0.0233066)
(-0.101154 -0.00157454 -0.0651656)
(-0.0662546 -0.00213892 -0.0911479)
(-0.0198285 -0.000484731 -0.0606211)
(-0.00813448 -0.00587865 0.0427755)
(-0.0330109 -0.007413 0.0760552)
(-0.0655065 -0.00636969 0.078406)
(-0.094155 -0.0045525 0.0650177)
(-0.117944 -0.00262773 0.0412836)
(-0.134783 -0.000963323 0.00673898)
(-0.139592 0.000144826 -0.0394025)
(-0.123479 -4.45964e-05 -0.0904487)
(-0.079707 -0.00115189 -0.119151)
(-0.0232957 -0.000796472 -0.0751929)
(-0.00867538 -0.00389562 0.0432125)
(-0.0357147 -0.00513752 0.0779511)
(-0.0712814 -0.00439748 0.0805174)
(-0.102482 -0.00302179 0.0662238)
(-0.128141 -0.0015306 0.0406709)
(-0.145864 -0.000205504 0.00336713)
(-0.150287 0.000659579 -0.0462955)
(-0.132107 0.000544341 -0.100976)
(-0.0846838 -0.000392923 -0.130742)
(-0.0244579 -0.000571375 -0.0811539)
(-0.00875511 -0.00132716 0.0430709)
(-0.0363913 -0.00178896 0.0781437)
(-0.0729384 -0.00152738 0.0808765)
(-0.104974 -0.00102598 0.0664789)
(-0.131264 -0.000474859 0.0405622)
(-0.149375 2.75029e-05 0.00258258)
(-0.15378 0.000325041 -0.0481366)
(-0.134963 0.000279102 -0.104063)
(-0.0863448 -7.21185e-05 -0.13436)
(-0.0248355 -0.000196053 -0.0830757)
(-0.00875511 0.00132718 0.0430709)
(-0.0363913 0.00178896 0.0781437)
(-0.0729384 0.00152737 0.0808765)
(-0.104974 0.00102597 0.0664789)
(-0.131264 0.00047485 0.0405622)
(-0.149375 -2.75107e-05 0.00258258)
(-0.15378 -0.000325043 -0.0481366)
(-0.134963 -0.000279099 -0.104063)
(-0.0863448 7.21278e-05 -0.13436)
(-0.0248355 0.000196058 -0.0830757)
(-0.00867538 0.00389563 0.0432125)
(-0.0357147 0.00513752 0.0779511)
(-0.0712814 0.00439747 0.0805174)
(-0.102482 0.00302178 0.0662238)
(-0.128141 0.00153059 0.0406709)
(-0.145864 0.000205499 0.00336713)
(-0.150287 -0.000659579 -0.0462955)
(-0.132107 -0.000544337 -0.100976)
(-0.0846838 0.000392931 -0.130742)
(-0.0244579 0.000571379 -0.0811539)
(-0.00813448 0.00587866 0.0427755)
(-0.0330109 0.007413 0.0760552)
(-0.0655065 0.00636969 0.078406)
(-0.094155 0.0045525 0.0650177)
(-0.117944 0.00262773 0.0412836)
(-0.134783 0.000963319 0.00673898)
(-0.139592 -0.000144825 -0.0394025)
(-0.123479 4.46004e-05 -0.0904487)
(-0.079707 0.0011519 -0.119151)
(-0.0232957 0.000796474 -0.0751929)
(-0.00637096 0.00583354 0.039136)
(-0.025659 0.00681594 0.0673575)
(-0.0508401 0.00587011 0.0693833)
(-0.0733771 0.004425 0.0589307)
(-0.0926596 0.00298187 0.0404908)
(-0.107152 0.00182974 0.0134773)
(-0.112576 0.00120694 -0.0233066)
(-0.101154 0.00157455 -0.0651656)
(-0.0662546 0.00213892 -0.0911479)
(-0.0198285 0.000484735 -0.0606211)
(-0.0026338 0.00254124 0.0242962)
(-0.0109491 0.00278564 0.0383207)
(-0.0220337 0.00239718 0.0392399)
(-0.0322695 0.00187771 0.0348608)
(-0.0417132 0.00140539 0.0272084)
(-0.049752 0.0010987 0.0155675)
(-0.0540724 0.00105441 -0.00139813)
(-0.0501386 0.00136244 -0.0224285)
(-0.0334762 0.00140493 -0.0386665)
(-0.0103504 6.40871e-05 -0.0301583)
(-0.00441871 -0.00336878 0.0370603)
(-0.0151246 -0.00350412 0.0549613)
(-0.0271127 -0.00258635 0.0546481)
(-0.0378016 -0.00131266 0.0483426)
(-0.0486679 9.921e-05 0.0387341)
(-0.0602616 0.00151447 0.0241023)
(-0.0702914 0.00248567 0.000923959)
(-0.0719673 0.00208208 -0.0316832)
(-0.0561284 0.0005271 -0.0624776)
(-0.0204238 -0.000492264 -0.0577433)
(-0.00952085 -0.00755387 0.058719)
(-0.0337276 -0.00837128 0.0957415)
(-0.0620284 -0.00618448 0.0965963)
(-0.0863903 -0.00285465 0.0826266)
(-0.108283 0.00100738 0.0597178)
(-0.127757 0.00495977 0.0254925)
(-0.140496 0.00784967 -0.0248951)
(-0.135665 0.00727515 -0.089619)
(-0.10146 0.00286007 -0.142013)
(-0.0351774 -0.0012066 -0.113118)
(-0.0116922 -0.00742486 0.0640143)
(-0.0424859 -0.0089086 0.107951)
(-0.0792139 -0.00656138 0.109531)
(-0.110318 -0.00267455 0.0923628)
(-0.136909 0.00190399 0.0634273)
(-0.158437 0.00650439 0.0201682)
(-0.169812 0.00976085 -0.042474)
(-0.159426 0.00911606 -0.120873)
(-0.116739 0.00394126 -0.180908)
(-0.0396918 -0.00105246 -0.137794)
(-0.0122734 -0.00483625 0.0648003)
(-0.0454509 -0.0060848 0.1108)
(-0.0855728 -0.00446743 0.11294)
(-0.119381 -0.00167905 0.0950711)
(-0.147796 0.00160616 0.0644079)
(-0.169978 0.00484962 0.0181967)
(-0.180578 0.00703412 -0.0489205)
(-0.167842 0.00648802 -0.132713)
(-0.122125 0.00287343 -0.195992)
(-0.0413517 -0.00056858 -0.147462)
(-0.0123164 -0.00163141 0.0647178)
(-0.0460717 -0.00210202 0.111227)
(-0.0872016 -0.00154046 0.113727)
(-0.121856 -0.000554242 0.0959493)
(-0.150902 0.000604565 0.0650904)
(-0.173433 0.00173556 0.0182331)
(-0.183997 0.00246759 -0.0501835)
(-0.170712 0.00225536 -0.135909)
(-0.124147 0.00101117 -0.200616)
(-0.0420332 -0.000160281 -0.150598)
(-0.0123164 0.00163142 0.0647178)
(-0.0460717 0.00210202 0.111227)
(-0.0872016 0.00154045 0.113727)
(-0.121856 0.000554232 0.0959493)
(-0.150902 -0.000604576 0.0650904)
(-0.173433 -0.00173556 0.0182331)
(-0.183997 -0.00246759 -0.0501835)
(-0.170712 -0.00225535 -0.135909)
(-0.124147 -0.00101117 -0.200616)
(-0.0420332 0.000160289 -0.150598)
(-0.0122734 0.00483626 0.0648003)
(-0.0454509 0.0060848 0.1108)
(-0.0855728 0.00446742 0.11294)
(-0.119381 0.00167904 0.0950711)
(-0.147796 -0.00160616 0.0644079)
(-0.169978 -0.00484962 0.0181967)
(-0.180578 -0.00703411 -0.0489205)
(-0.167842 -0.00648801 -0.132713)
(-0.122125 -0.00287343 -0.195992)
(-0.0413517 0.000568586 -0.147462)
(-0.0116922 0.00742487 0.0640143)
(-0.0424859 0.0089086 0.107951)
(-0.0792139 0.00656138 0.109531)
(-0.110318 0.00267454 0.0923628)
(-0.136909 -0.00190399 0.0634273)
(-0.158437 -0.00650439 0.0201682)
(-0.169812 -0.00976084 -0.042474)
(-0.159426 -0.00911605 -0.120873)
(-0.116739 -0.00394125 -0.180908)
(-0.0396918 0.00105246 -0.137794)
(-0.00952085 0.00755387 0.058719)
(-0.0337276 0.00837128 0.0957415)
(-0.0620284 0.00618448 0.0965963)
(-0.0863903 0.00285464 0.0826266)
(-0.108283 -0.00100739 0.0597178)
(-0.127757 -0.00495977 0.0254925)
(-0.140496 -0.00784966 -0.0248951)
(-0.135665 -0.00727515 -0.0896189)
(-0.10146 -0.00286007 -0.142013)
(-0.0351774 0.0012066 -0.113118)
(-0.00441871 0.00336878 0.0370602)
(-0.0151246 0.00350412 0.0549612)
(-0.0271127 0.00258635 0.0546481)
(-0.0378016 0.00131266 0.0483426)
(-0.0486679 -9.92118e-05 0.0387341)
(-0.0602617 -0.00151447 0.0241023)
(-0.0702914 -0.00248567 0.000923962)
(-0.0719673 -0.00208208 -0.0316832)
(-0.0561284 -0.000527097 -0.0624776)
(-0.0204238 0.000492264 -0.0577433)
(-0.00844254 -0.00449563 0.0560214)
(-0.0224024 -0.00427455 0.0740582)
(-0.0321807 -0.0022573 0.0694863)
(-0.0396719 0.000453308 0.0595461)
(-0.0486761 0.00358424 0.0474578)
(-0.0618033 0.00703165 0.0301792)
(-0.0782939 0.00989375 0.00142924)
(-0.0898127 0.00977645 -0.0446317)
(-0.0826606 0.0054171 -0.0962022)
(-0.0339211 -0.000962992 -0.106515)
(-0.0156097 -0.00974527 0.0862028)
(-0.0453318 -0.00989191 0.128121)
(-0.0715248 -0.00531022 0.124025)
(-0.0904884 0.00130818 0.104922)
(-0.107272 0.00917746 0.0778996)
(-0.12498 0.0177078 0.0384787)
(-0.14184 0.0244223 -0.022765)
(-0.146635 0.0236951 -0.11187)
(-0.126559 0.012358 -0.201942)
(-0.0484073 -0.00279952 -0.198149)
(-0.0181393 -0.009261 0.0931224)
(-0.0549167 -0.0103104 0.143968)
(-0.0897043 -0.0057022 0.141257)
(-0.114384 0.00144545 0.11931)
(-0.133687 0.00999893 0.0864328)
(-0.150362 0.0188834 0.0377263)
(-0.162632 0.0251904 -0.0368894)
(-0.159968 0.0234718 -0.143008)
(-0.134475 0.0114012 -0.247241)
(-0.0505039 -0.00237523 -0.234336)
(-0.0186561 -0.00590388 0.0940987)
(-0.0576809 -0.00696083 0.147627)
(-0.0957044 -0.00393202 0.146011)
(-0.122536 0.000943456 0.123907)
(-0.142648 0.00677384 0.0897749)
(-0.158614 0.0126596 0.0383378)
(-0.168825 0.0165326 -0.0409646)
(-0.163392 0.0149997 -0.153832)
(-0.136928 0.00706484 -0.264021)
(-0.0516304 -0.00125248 -0.248117)
(-0.0186111 -0.00196828 0.0939968)
(-0.0580343 -0.00239075 0.14819)
(-0.096892 -0.00136584 0.147187)
(-0.124341 0.000312831 0.125472)
(-0.144767 0.00231139 0.0914161)
(-0.160725 0.00429841 0.0394722)
(-0.17067 0.00555069 -0.0412866)
(-0.16484 0.00497107 -0.156765)
(-0.13844 0.00232519 -0.269435)
(-0.0524207 -0.000343097 -0.25281)
(-0.0186111 0.00196829 0.0939968)
(-0.0580343 0.00239075 0.14819)
(-0.096892 0.00136583 0.147187)
(-0.124341 -0.000312846 0.125472)
(-0.144767 -0.0023114 0.0914161)
(-0.160725 -0.00429842 0.0394722)
(-0.17067 -0.00555069 -0.0412866)
(-0.16484 -0.00497107 -0.156765)
(-0.13844 -0.00232519 -0.269435)
(-0.0524207 0.000343106 -0.25281)
(-0.0186561 0.00590389 0.0940987)
(-0.0576809 0.00696083 0.147627)
(-0.0957044 0.00393201 0.146011)
(-0.122536 -0.00094347 0.123907)
(-0.142648 -0.00677385 0.0897749)
(-0.158614 -0.0126596 0.0383379)
(-0.168825 -0.0165326 -0.0409646)
(-0.163392 -0.0149997 -0.153832)
(-0.136928 -0.00706483 -0.264021)
(-0.0516304 0.00125249 -0.248117)
(-0.0181393 0.009261 0.0931224)
(-0.0549167 0.0103104 0.143968)
(-0.0897043 0.00570219 0.141257)
(-0.114384 -0.00144546 0.11931)
(-0.133687 -0.00999894 0.0864328)
(-0.150362 -0.0188834 0.0377263)
(-0.162632 -0.0251904 -0.0368894)
(-0.159968 -0.0234718 -0.143008)
(-0.134475 -0.0114012 -0.247241)
(-0.0505039 0.00237523 -0.234336)
(-0.0156097 0.00974527 0.0862028)
(-0.0453318 0.00989191 0.128121)
(-0.0715248 0.00531022 0.124025)
(-0.0904884 -0.00130819 0.104922)
(-0.107272 -0.00917746 0.0778996)
(-0.12498 -0.0177078 0.0384787)
(-0.14184 -0.0244223 -0.022765)
(-0.146635 -0.0236951 -0.11187)
(-0.126559 -0.012358 -0.201942)
(-0.0484073 0.00279952 -0.198149)
(-0.00844254 0.00449564 0.0560214)
(-0.0224024 0.00427456 0.0740582)
(-0.0321807 0.0022573 0.0694863)
(-0.0396719 -0.00045331 0.0595461)
(-0.0486761 -0.00358424 0.0474578)
(-0.0618033 -0.00703165 0.0301792)
(-0.0782939 -0.00989375 0.00142924)
(-0.0898127 -0.00977645 -0.0446317)
(-0.0826606 -0.0054171 -0.0962022)
(-0.0339211 0.00096299 -0.106515)
(-0.0176092 -0.00631914 0.0820794)
(-0.0344912 -0.00562985 0.0911593)
(-0.0312808 -0.00213362 0.0780786)
(-0.0268662 0.00242208 0.0619474)
(-0.0267081 0.00746518 0.0467242)
(-0.035225 0.0131582 0.0278381)
(-0.0553403 0.0184269 -0.0040462)
(-0.0789296 0.018865 -0.0618708)
(-0.0948639 0.0105084 -0.137769)
(-0.040722 -0.00414569 -0.184248)
(-0.0286516 -0.0130593 0.12012)
(-0.0627891 -0.0124229 0.157439)
(-0.0691025 -0.00491917 0.143191)
(-0.0655384 0.00534191 0.116027)
(-0.0615772 0.0170613 0.0854893)
(-0.0631524 0.029889 0.0457166)
(-0.0747418 0.0408486 -0.0169961)
(-0.0878467 0.0403223 -0.121729)
(-0.1042 0.0202861 -0.252226)
(-0.037846 -0.00965346 -0.308317)
(-0.0317552 -0.0118874 0.127736)
(-0.0728194 -0.0126597 0.176527)
(-0.0856409 -0.00564416 0.164609)
(-0.083743 0.00458317 0.135165)
(-0.077174 0.0164924 0.0998626)
(-0.0717952 0.0289172 0.0524214)
(-0.0735832 0.0382965 -0.0214263)
(-0.076277 0.0357285 -0.142981)
(-0.0927533 0.0158334 -0.293098)
(-0.0317976 -0.00769461 -0.348579)
(-0.0321748 -0.00737654 0.128578)
(-0.0749675 -0.00842576 0.180701)
(-0.0900819 -0.00405525 0.170526)
(-0.0888707 0.00258882 0.141524)
(-0.0812837 0.0104046 0.105603)
(-0.0730524 0.0183669 0.0561315)
(-0.0711213 0.0239261 -0.0215922)
(-0.070656 0.0216264 -0.149996)
(-0.0892889 0.00919459 -0.30797)
(-0.031124 -0.00408475 -0.363477)
(-0.0320136 -0.00242368 0.128369)
(-0.0748694 -0.00287368 0.181228)
(-0.0904008 -0.00143778 0.171901)
(-0.0893364 0.00079267 0.143527)
(-0.081529 0.00342178 0.107892)
(-0.072677 0.00607268 0.0580741)
(-0.0701422 0.00785509 -0.0210008)
(-0.0695456 0.00700851 -0.152245)
(-0.0896021 0.00296999 -0.313289)
(-0.0317751 -0.001167 -0.368858)
(-0.0320136 0.00242368 0.128369)
(-0.0748694 0.00287367 0.181228)
(-0.0904008 0.00143776 0.171901)
(-0.0893364 -0.000792692 0.143527)
(-0.081529 -0.0034218 0.107892)
(-0.072677 -0.00607269 0.0580741)
(-0.0701422 -0.00785509 -0.0210008)
(-0.0695456 -0.00700851 -0.152245)
(-0.0896021 -0.00296998 -0.313289)
(-0.0317751 0.00116702 -0.368858)
(-0.0321748 0.00737653 0.128578)
(-0.0749675 0.00842575 0.180701)
(-0.0900819 0.00405523 0.170526)
(-0.0888707 -0.00258884 0.141524)
(-0.0812837 -0.0104046 0.105603)
(-0.0730524 -0.0183669 0.0561315)
(-0.0711213 -0.0239261 -0.0215922)
(-0.070656 -0.0216264 -0.149996)
(-0.0892889 -0.00919458 -0.30797)
(-0.031124 0.00408476 -0.363477)
(-0.0317552 0.0118874 0.127736)
(-0.0728194 0.0126597 0.176527)
(-0.0856409 0.00564415 0.164609)
(-0.083743 -0.00458319 0.135165)
(-0.077174 -0.0164924 0.0998626)
(-0.0717952 -0.0289172 0.0524214)
(-0.0735832 -0.0382965 -0.0214262)
(-0.076277 -0.0357285 -0.142981)
(-0.0927533 -0.0158334 -0.293098)
(-0.0317976 0.00769461 -0.348579)
(-0.0286516 0.0130593 0.12012)
(-0.0627891 0.0124229 0.157439)
(-0.0691026 0.00491917 0.143191)
(-0.0655384 -0.00534192 0.116027)
(-0.0615772 -0.0170613 0.0854893)
(-0.0631524 -0.029889 0.0457166)
(-0.0747418 -0.0408486 -0.0169961)
(-0.0878467 -0.0403223 -0.121729)
(-0.1042 -0.0202861 -0.252226)
(-0.037846 0.00965346 -0.308317)
(-0.0176092 0.00631915 0.0820794)
(-0.0344912 0.00562985 0.0911593)
(-0.0312808 0.00213362 0.0780786)
(-0.0268662 -0.00242208 0.0619474)
(-0.0267081 -0.00746518 0.0467242)
(-0.035225 -0.0131582 0.0278381)
(-0.0553403 -0.0184269 -0.0040462)
(-0.0789296 -0.018865 -0.0618708)
(-0.0948639 -0.0105084 -0.137769)
(-0.040722 0.00414568 -0.184248)
(-0.0242845 -0.0105762 0.152381)
(-0.0239788 -0.00964691 0.0998228)
(0.0182713 -0.00484486 0.0639702)
(0.0471874 0.00100089 0.0428728)
(0.065207 0.00684667 0.0275308)
(0.0686454 0.0132923 0.011358)
(0.0508184 0.0200401 -0.0154636)
(0.0191431 0.0206123 -0.071393)
(-0.0437601 0.00789353 -0.165618)
(-0.00708496 -0.0149848 -0.253571)
(-0.0439423 -0.0203476 0.211606)
(-0.0489677 -0.0200723 0.167457)
(0.00716125 -0.0109782 0.122298)
(0.0552846 0.000705197 0.0896571)
(0.0943613 0.0132578 0.0621642)
(0.120589 0.0267904 0.0321308)
(0.121341 0.0404076 -0.0133822)
(0.108159 0.0415591 -0.101547)
(0.0260913 0.0153447 -0.248472)
(0.0388511 -0.0261185 -0.362735)
(-0.0490113 -0.0166534 0.220937)
(-0.0579278 -0.0189425 0.184566)
(-0.00237475 -0.0116901 0.140992)
(0.0499194 -0.00130827 0.107033)
(0.0967225 0.0106731 0.0765839)
(0.13468 0.0232826 0.0419173)
(0.14729 0.0347296 -0.0097533)
(0.146775 0.0341332 -0.107064)
(0.0611023 0.0107136 -0.269881)
(0.0562989 -0.0174339 -0.389835)
(-0.0493768 -0.00976417 0.221306)
(-0.0588377 -0.0120724 0.187161)
(-0.00388654 -0.00796931 0.14515)
(0.0491696 -0.00161481 0.111954)
(0.0980344 0.00590869 0.0814481)
(0.139783 0.0138536 0.0456246)
(0.155829 0.0206807 -0.00838778)
(0.158373 0.0199482 -0.109364)
(0.0691223 0.00662032 -0.277829)
(0.058809 -0.00853727 -0.39941)
(-0.0489995 -0.00312636 0.220756)
(-0.0580625 -0.00403388 0.186975)
(-0.00303619 -0.00274929 0.145644)