/*--------------------------------*- C++ -*----------------------------------*\
  =========                 |
  \\      /  F ield         | OpenFOAM: The Open Source CFD Toolbox
   \\    /   O peration     | Website:  https://openfoam.org
    \\  /    A nd           | Version:  9
     \\/     M anipulation  |
\*---------------------------------------------------------------------------*/
FoamFile
{
    format      ascii;
    class       surfaceScalarField;
    location    "0.65";
    object      phi;
}
// * * * * * * * * * * * * * * * * * * * * * * * * * * * * * * * * * * * * * //

dimensions      [0 3 -1 0 0 0 0];

internalField   nonuniform List<scalar> 
2700
(
-5.97391e-08
-1.04869e-07
1.64659e-07
-3.04317e-07
-1.16496e-07
3.61073e-07
-6.27739e-07
-1.1699e-07
4.40412e-07
-9.45812e-07
-1.38312e-07
4.56385e-07
-1.1706e-06
-1.90617e-07
4.15408e-07
-1.20422e-06
-2.68312e-07
3.01928e-07
-9.80195e-07
-3.44081e-07
1.20057e-07
-5.40637e-07
-3.68371e-07
-7.11878e-08
-1.03883e-07
-2.94627e-07
-1.42127e-07
-9.73955e-08
-6.48711e-09
-1.59141e-07
-2.27528e-07
2.81799e-07
-6.86089e-07
-3.01408e-07
7.11859e-07
-1.35218e-06
-3.22295e-07
8.714e-07
-1.97671e-06
-3.63406e-07
8.49618e-07
-2.38917e-06
-4.46523e-07
6.68365e-07
-2.41477e-06
-5.60169e-07
3.17459e-07
-1.94421e-06
-6.57767e-07
-1.56874e-07
-1.07734e-06
-6.66185e-07
-5.69049e-07
-2.34676e-07
-5.28006e-07
-6.09289e-07
-2.13776e-07
-1.18296e-07
-2.36103e-07
-2.4791e-07
2.56485e-07
-9.5411e-07
-3.52193e-07
7.68792e-07
-1.83944e-06
-3.84839e-07
9.47869e-07
-2.64738e-06
-4.27249e-07
8.71791e-07
-3.15415e-06
-5.03841e-07
5.64086e-07
-3.14072e-06
-6.04119e-07
3.05154e-08
-2.47686e-06
-6.76823e-07
-6.44799e-07
-1.32107e-06
-6.65649e-07
-1.15633e-06
-2.51122e-07
-5.26108e-07
-1.07184e-06
-2.31578e-07
-2.33321e-07
-2.88011e-07
-1.56993e-07
1.97093e-07
-1.13141e-06
-2.29808e-07
7.21018e-07
-2.15736e-06
-2.53262e-07
8.94375e-07
-3.07749e-06
-2.79181e-07
7.72059e-07
-3.63316e-06
-3.22835e-07
3.74664e-07
-3.56772e-06
-3.77229e-07
-2.92334e-07
-2.76073e-06
-4.14424e-07
-1.06938e-06
-1.41491e-06
-4.01628e-07
-1.60984e-06
-2.23679e-07
-3.17354e-07
-1.39998e-06
-1.45325e-07
-3.09932e-07
-3.14639e-07
1.30157e-12
1.57645e-07
-1.22069e-06
1.15815e-12
6.76246e-07
-2.31591e-06
8.86581e-13
8.41955e-07
-3.28913e-06
5.71479e-13
6.94034e-07
-3.86324e-06
4.57177e-13
2.51275e-07
-3.76705e-06
3.41907e-13
-4.73412e-07
-2.88239e-06
2.44973e-13
-1.29909e-06
-1.44248e-06
2.09929e-13
-1.84153e-06
-2.00065e-07
2.08613e-13
-1.55977e-06
1.835e-13
-3.45391e-07
-3.14639e-07
1.56995e-07
1.57645e-07
-1.22069e-06
2.29811e-07
6.76246e-07
-2.31591e-06
2.53264e-07
8.41955e-07
-3.28913e-06
2.79183e-07
6.94034e-07
-3.86324e-06
3.22836e-07
2.51275e-07
-3.76705e-06
3.7723e-07
-4.73412e-07
-2.88239e-06
4.14425e-07
-1.29909e-06
-1.44248e-06
4.01628e-07
-1.84153e-06
-2.00065e-07
3.17355e-07
-1.55977e-06
1.45326e-07
-3.45391e-07
-2.88011e-07
2.47913e-07
1.97093e-07
-1.13141e-06
3.52195e-07
7.21017e-07
-2.15737e-06
3.84841e-07
8.94374e-07
-3.07749e-06
4.2725e-07
7.72058e-07
-3.63316e-06
5.03842e-07
3.74664e-07
-3.56772e-06
6.04119e-07
-2.92334e-07
-2.76073e-06
6.76824e-07
-1.06938e-06
-1.41491e-06
6.6565e-07
-1.60984e-06
-2.23679e-07
5.26109e-07
-1.39998e-06
2.31578e-07
-3.09932e-07
-2.36104e-07
2.27533e-07
2.56484e-07
-9.54112e-07
3.01412e-07
7.68791e-07
-1.83944e-06
3.22297e-07
9.47869e-07
-2.64738e-06
3.63407e-07
8.71791e-07
-3.15415e-06
4.46523e-07
5.64085e-07
-3.14072e-06
5.6017e-07
3.05152e-08
-2.47686e-06
6.57768e-07
-6.44799e-07
-1.32107e-06
6.66185e-07
-1.15633e-06
-2.51122e-07
5.28007e-07
-1.07184e-06
2.13776e-07
-2.33321e-07
-1.59145e-07
1.04884e-07
2.81795e-07
-6.86092e-07
1.16502e-07
7.11857e-07
-1.35218e-06
1.16992e-07
8.71399e-07
-1.97671e-06
1.38313e-07
8.49618e-07
-2.38917e-06
1.90618e-07
6.68365e-07
-2.41477e-06
2.68312e-07
3.17459e-07
-1.94421e-06
3.44081e-07
-1.56874e-07
-1.07734e-06
3.68371e-07
-5.69049e-07
-2.34677e-07
2.94627e-07
-6.09289e-07
9.73956e-08
-1.18296e-07
-5.97572e-08
1.64642e-07
-3.04323e-07
3.61068e-07
-6.27742e-07
4.40411e-07
-9.45814e-07
4.56384e-07
-1.1706e-06
4.15408e-07
-1.20422e-06
3.01928e-07
-9.80196e-07
1.20057e-07
-5.40637e-07
-7.1188e-08
-1.03883e-07
-1.42127e-07
-6.48727e-09
-2.19428e-07
-2.74908e-07
6.58993e-07
-7.20213e-07
-3.6574e-07
1.2276e-06
-1.32266e-06
-3.81338e-07
1.42419e-06
-1.89578e-06
-3.90897e-07
1.42041e-06
-2.29601e-06
-4.22972e-07
1.23861e-06
-2.36351e-06
-4.79407e-07
8.48836e-07
-1.98291e-06
-5.33183e-07
2.72639e-07
-1.19439e-06
-5.26089e-07
-3.33619e-07
-3.31372e-07
-3.90821e-07
-6.14322e-07
-8.43057e-08
-2.53553e-07
-5.97506e-07
-5.00312e-07
1.10471e-06
-1.80948e-06
-7.24966e-07
2.28306e-06
-3.19965e-06
-7.70877e-07
2.65111e-06
-4.44202e-06
-7.89235e-07
2.49033e-06
-5.22761e-06
-8.36939e-07
1.86792e-06
-5.2609e-06
-9.13636e-07
7.84979e-07
-4.35845e-06
-9.78263e-07
-6.14244e-07
-2.64985e-06
-9.36915e-07
-1.86682e-06
-8.188e-07
-7.07732e-07
-2.12343e-06
-2.31076e-07
-7.90326e-07
-8.83871e-07
-5.07972e-07
1.14802e-06
-2.60741e-06
-7.69353e-07
2.53671e-06
-4.52583e-06
-8.26618e-07
2.92203e-06
-6.17208e-06
-8.44365e-07
2.57318e-06
-7.13311e-06
-8.83937e-07
1.57211e-06
-7.06554e-06
-9.45841e-07
-4.84636e-09
-5.75024e-06
-9.78685e-07
-1.95969e-06
-3.43072e-06
-9.18696e-07
-3.49406e-06
-1.03292e-06
-7.01752e-07
-3.47562e-06
-2.69806e-07
-1.22751e-06
-1.07155e-06
-3.11772e-07
1.07244e-06
-3.13216e-06
-4.82383e-07
2.49466e-06
-5.38414e-06
-5.20715e-07
2.84046e-06
-7.26321e-06
-5.30479e-07
2.33724e-06
-8.29807e-06
-5.49986e-07
1.07557e-06
-8.10911e-06
-5.79508e-07
-8.47631e-07
-6.50267e-06
-5.88719e-07
-3.06578e-06
-3.80206e-06
-5.46459e-07
-4.6827e-06
-1.0975e-06
-4.2064e-07
-4.38566e-06
-1.74182e-07
-1.50305e-06
-1.16406e-06
1.18373e-12
1.00993e-06
-3.39212e-06
9.72202e-13
2.42192e-06
-5.80558e-06
6.78934e-13
2.7347e-06
-7.78961e-06
4.43775e-13
2.14758e-06
-8.84668e-06
3.75386e-13
7.58362e-07
-8.58215e-06
3.06841e-13
-1.31745e-06
-6.82501e-06
2.34088e-13
-3.64494e-06
-3.94365e-06
2.14716e-13
-5.26936e-06
-1.10852e-06
2.08276e-13
-4.81554e-06
1.72926e-13
-1.62809e-06
-1.16406e-06
3.11775e-07
1.00993e-06
-3.39212e-06
4.82385e-07
2.42192e-06
-5.80558e-06
5.20716e-07
2.7347e-06
-7.78961e-06
5.3048e-07
2.14758e-06
-8.84668e-06
5.49987e-07
7.58361e-07
-8.58215e-06
5.79509e-07
-1.31745e-06
-6.82501e-06
5.8872e-07
-3.64494e-06
-3.94365e-06
5.4646e-07
-5.26936e-06
-1.10852e-06
4.20641e-07
-4.81554e-06
1.74183e-07
-1.62809e-06
-1.07155e-06
5.07975e-07
1.07244e-06
-3.13216e-06
7.69355e-07
2.49466e-06
-5.38414e-06
8.2662e-07
2.84046e-06
-7.26321e-06
8.44366e-07
2.33724e-06
-8.29807e-06
8.83938e-07
1.07557e-06
-8.10911e-06
9.45841e-07
-8.47631e-07
-6.50267e-06
9.78685e-07
-3.06578e-06
-3.80206e-06
9.18696e-07
-4.6827e-06
-1.0975e-06
7.01752e-07
-4.38566e-06
2.69806e-07
-1.50305e-06
-8.83872e-07
5.00316e-07
1.14802e-06
-2.60741e-06
7.24968e-07
2.53671e-06
-4.52583e-06
7.70879e-07
2.92203e-06
-6.17208e-06
7.89236e-07
2.57318e-06
-7.13311e-06
8.3694e-07
1.57211e-06
-7.06555e-06
9.13636e-07
-4.84657e-09
-5.75024e-06
9.78263e-07
-1.95969e-06
-3.43072e-06
9.36916e-07
-3.49406e-06
-1.03292e-06
7.07732e-07
-3.47562e-06
2.31076e-07
-1.22751e-06
-5.97508e-07
2.74913e-07
1.10471e-06
-1.80949e-06
3.65742e-07
2.28306e-06
-3.19965e-06
3.8134e-07
2.65111e-06
-4.44203e-06
3.90898e-07
2.49033e-06
-5.22761e-06
4.22972e-07
1.86792e-06
-5.2609e-06
4.79408e-07
7.84979e-07
-4.35845e-06
5.33184e-07
-6.14244e-07
-2.64985e-06
5.26089e-07
-1.86682e-06
-8.188e-07
3.90821e-07
-2.12343e-06
8.4306e-08
-7.90326e-07
-2.19432e-07
6.58987e-07
-7.20216e-07
1.22759e-06
-1.32266e-06
1.42419e-06
-1.89578e-06
1.42041e-06
-2.29601e-06
1.23861e-06
-2.36351e-06
8.48835e-07
-1.98291e-06
2.72639e-07
-1.19439e-06
-3.33619e-07
-3.31372e-07
-6.14322e-07
-2.53553e-07
-3.32202e-07
-4.20723e-07
1.41192e-06
-1.00369e-06
-5.63475e-07
2.46257e-06
-1.78598e-06
-5.6717e-07
2.77365e-06
-2.54651e-06
-5.29299e-07
2.71024e-06
-3.13343e-06
-5.00739e-07
2.32626e-06
-3.34461e-06
-5.03935e-07
1.56395e-06
-2.97798e-06
-5.27048e-07
4.33062e-07
-1.97139e-06
-5.22293e-07
-8.17916e-07
-6.70892e-07
-3.93161e-07
-1.52166e-06
-3.99759e-08
-8.84469e-07
-9.50331e-07
-7.29293e-07
2.36361e-06
-2.68098e-06
-1.04982e-06
4.50006e-06
-4.59349e-06
-1.06394e-06
5.06039e-06
-6.30525e-06
-9.82909e-07
4.6557e-06
-7.46491e-06
-9.05129e-07
3.43196e-06
-7.69886e-06
-8.66824e-07
1.38182e-06
-6.68507e-06
-8.52729e-07
-1.30235e-06
-4.39978e-06
-8.09375e-07
-3.86503e-06
-1.57894e-06
-6.23736e-07
-4.7137e-06
-1.54984e-07
-2.25425e-06
-1.43331e-06
-7.18913e-07
2.57095e-06
-3.95439e-06
-1.07456e-06
5.08252e-06
-6.64173e-06
-1.09202e-06
5.63745e-06
-8.9201e-06
-9.98421e-07
4.86706e-06
-1.03199e-05
-8.96504e-07
2.96332e-06
-1.04068e-05
-8.20471e-07
3.56259e-08
-8.8547e-06
-7.65425e-07
-3.59906e-06
-5.72424e-06
-7.05524e-07
-6.72837e-06
-2.01863e-06
-5.58313e-07
-7.24666e-06
-1.90408e-07
-3.21072e-06
-1.75379e-06
-4.33755e-07
2.54107e-06
-4.79598e-06
-6.60395e-07
5.12268e-06
-7.96337e-06
-6.71292e-07
5.58713e-06
-1.0547e-05
-6.08576e-07
4.53101e-06
-1.20152e-05
-5.36045e-07
2.1833e-06
-1.19257e-05
-4.74449e-07
-1.2831e-06
-9.99218e-06
-4.26734e-07
-5.33803e-06
-6.3588e-06
-3.86995e-07
-8.6346e-06
-2.19103e-06
-3.13359e-07
-8.79838e-06
-1.23499e-07
-3.76099e-06
-1.91164e-06
9.15025e-13
2.48781e-06
-5.21036e-06
7.21011e-13
5.06025e-06
-8.60443e-06
4.75176e-13
5.45748e-06
-1.13163e-05
2.94678e-13
4.25085e-06
-1.27884e-05
2.66035e-13
1.69447e-06
-1.2588e-05
2.15184e-13
-1.99232e-06
-1.04619e-05
1.79e-13
-6.19775e-06
-6.60215e-06
1.64953e-13
-9.51615e-06
-2.24521e-06
1.51844e-13
-9.48583e-06
1.3081e-13
-3.99681e-06
-1.91164e-06
4.33757e-07
2.48781e-06
-5.21036e-06
6.60397e-07
5.06025e-06
-8.60443e-06
6.71293e-07
5.45748e-06
-1.13163e-05
6.08577e-07
4.25085e-06
-1.27884e-05
5.36046e-07
1.69447e-06
-1.2588e-05
4.7445e-07
-1.99232e-06
-1.04619e-05
4.26734e-07
-6.19775e-06
-6.60215e-06
3.86996e-07
-9.51615e-06
-2.24521e-06
3.1336e-07
-9.48583e-06
1.23499e-07
-3.99681e-06
-1.75379e-06
7.18915e-07
2.54107e-06
-4.79598e-06
1.07456e-06
5.12268e-06
-7.96337e-06
1.09202e-06
5.58713e-06
-1.0547e-05
9.98422e-07
4.53101e-06
-1.20152e-05
8.96505e-07
2.1833e-06
-1.19257e-05
8.20471e-07
-1.2831e-06
-9.99218e-06
7.65425e-07
-5.33803e-06
-6.3588e-06
7.05524e-07
-8.6346e-06
-2.19103e-06
5.58313e-07
-8.79838e-06
1.90408e-07
-3.76099e-06
-1.43331e-06
7.29295e-07
2.57095e-06
-3.95439e-06
1.04983e-06
5.08252e-06
-6.64173e-06
1.06395e-06
5.63745e-06
-8.9201e-06
9.8291e-07
4.86706e-06
-1.03199e-05
9.0513e-07
2.96332e-06
-1.04068e-05
8.66824e-07
3.56257e-08
-8.8547e-06
8.52729e-07
-3.59906e-06
-5.72424e-06
8.09375e-07
-6.72837e-06
-2.01863e-06
6.23737e-07
-7.24666e-06
1.54984e-07
-3.21072e-06
-9.50332e-07
4.20725e-07
2.36361e-06
-2.68098e-06
5.63476e-07
4.50006e-06
-4.59349e-06
5.6717e-07
5.06038e-06
-6.30525e-06
5.29299e-07
4.6557e-06
-7.46491e-06
5.0074e-07
3.43196e-06
-7.69886e-06
5.03935e-07
1.38182e-06
-6.68507e-06
5.27048e-07
-1.30235e-06
-4.39978e-06
5.22293e-07
-3.86503e-06
-1.57894e-06
3.93162e-07
-4.7137e-06
3.9976e-08
-2.25425e-06
-3.32203e-07
1.41191e-06
-1.0037e-06
2.46256e-06
-1.78598e-06
2.77365e-06
-2.54651e-06
2.71024e-06
-3.13343e-06
2.32626e-06
-3.34461e-06
1.56395e-06
-2.97798e-06
4.33062e-07
-1.97139e-06
-8.17916e-07
-6.70892e-07
-1.52166e-06
-8.84469e-07
-4.16312e-07
-5.49723e-07
2.37795e-06
-1.20348e-06
-7.16039e-07
3.96577e-06
-2.11286e-06
-6.68399e-07
4.35142e-06
-3.05163e-06
-5.32281e-07
4.1813e-06
-3.89897e-06
-3.88012e-07
3.56161e-06
-4.42035e-06
-2.92009e-07
2.37733e-06
-4.27598e-06
-2.70367e-07
5.59065e-07
-3.169e-06
-3.17418e-07
-1.60749e-06
-1.30519e-06
-2.99399e-07
-3.08607e-06
-4.33608e-10
-2.18922e-06
-1.22936e-06
-9.29135e-07
3.97239e-06
-3.35361e-06
-1.29129e-06
7.19956e-06
-5.66637e-06
-1.19685e-06
7.9016e-06
-7.80731e-06
-9.13082e-07
7.17744e-06
-9.45448e-06
-5.92699e-07
5.28382e-06
-1.0179e-05
-3.414e-07
2.15573e-06
-9.43956e-06
-2.22977e-07
-2.08918e-06
-6.82398e-06
-2.67129e-07
-6.5309e-06
-2.83482e-06
-3.13052e-07
-8.68921e-06
-5.12735e-08
-5.03823e-06
-1.87282e-06
-8.99197e-07
4.41383e-06
-5.0103e-06
-1.29084e-06
8.21956e-06
-8.28228e-06
-1.18633e-06
8.89892e-06
-1.11026e-05
-8.70056e-07
7.64433e-06
-1.30383e-05
-5.02073e-07
4.80844e-06
-1.36029e-05
-1.90392e-07
4.49183e-07
-1.22824e-05
-3.12496e-08
-5.11129e-06
-8.69792e-06
-7.07624e-08
-1.05092e-05
-3.55967e-06
-1.78654e-07
-1.25193e-05
-6.87912e-08
-6.75287e-06
-2.29915e-06
-5.36057e-07
4.47709e-06
-6.09646e-06
-7.81484e-07
8.41063e-06
-9.93985e-06
-7.1296e-07
8.95714e-06
-1.30853e-05
-5.07735e-07
7.31414e-06
-1.50511e-05
-2.66509e-07
3.91358e-06
-1.53936e-05
-5.85387e-08
-1.07252e-06
-1.36511e-05
4.80862e-08
-7.15985e-06
-9.53463e-06
2.08531e-08
-1.28427e-05
-3.85214e-06
-6.6068e-08
-1.45935e-05
-4.34932e-08
-7.63843e-06
-2.50721e-06
6.34963e-13
4.45897e-06
-6.62347e-06
4.44405e-13
8.39502e-06
-1.07254e-05
2.3315e-13
8.84644e-06
-1.39895e-05
1.20435e-13
7.00727e-06
-1.59225e-05
1.47068e-13
3.3609e-06
-1.6119e-05
1.80032e-13
-1.85436e-06
-1.41733e-05
1.84979e-13
-8.09538e-06
-9.8386e-06
1.84533e-13
-1.383e-05
-3.9523e-06
1.53177e-13
-1.54382e-05
1.3715e-13
-7.9926e-06
-2.50721e-06
5.36058e-07
4.45897e-06
-6.62347e-06
7.81485e-07
8.39502e-06
-1.07254e-05
7.1296e-07
8.84644e-06
-1.39895e-05
5.07736e-07
7.00727e-06
-1.59225e-05
2.6651e-07
3.3609e-06
-1.6119e-05
5.85392e-08
-1.85436e-06
-1.41733e-05
-4.80858e-08
-8.09538e-06
-9.8386e-06
-2.08527e-08
-1.383e-05
-3.9523e-06
6.60683e-08
-1.54382e-05
4.34935e-08
-7.9926e-06
-2.29915e-06
8.99199e-07
4.47709e-06
-6.09646e-06
1.29085e-06
8.41063e-06
-9.93985e-06
1.18633e-06
8.95714e-06
-1.30853e-05
8.70057e-07
7.31414e-06
-1.50511e-05
5.02074e-07
3.91358e-06
-1.53936e-05
1.90392e-07
-1.07252e-06
-1.36511e-05
3.125e-08
-7.15985e-06
-9.53463e-06
7.07627e-08
-1.28427e-05
-3.85214e-06
1.78654e-07
-1.45935e-05
6.87914e-08
-7.63843e-06
-1.87282e-06
9.29136e-07
4.41383e-06
-5.0103e-06
1.29129e-06
8.21956e-06
-8.28228e-06
1.19685e-06
8.89892e-06
-1.11026e-05
9.13083e-07
7.64433e-06
-1.30383e-05
5.927e-07
4.80844e-06
-1.36029e-05
3.41401e-07
4.49183e-07
-1.22824e-05
2.22977e-07
-5.11129e-06
-8.69792e-06
2.67129e-07
-1.05092e-05
-3.55967e-06
3.13052e-07
-1.25193e-05
5.12737e-08
-6.75287e-06
-1.22936e-06
5.49724e-07
3.97239e-06
-3.35361e-06
7.1604e-07
7.19956e-06
-5.66637e-06
6.68399e-07
7.9016e-06
-7.80731e-06
5.32282e-07
7.17744e-06
-9.45448e-06
3.88013e-07
5.28382e-06
-1.0179e-05
2.9201e-07
2.15573e-06
-9.43956e-06
2.70367e-07
-2.08918e-06
-6.82398e-06
3.17418e-07
-6.5309e-06
-2.83482e-06
2.99399e-07
-8.68921e-06
4.33602e-10
-5.03823e-06
-4.16312e-07
2.37795e-06
-1.20348e-06
3.96577e-06
-2.11286e-06
4.35142e-06
-3.05163e-06
4.18129e-06
-3.89897e-06
3.56161e-06
-4.42035e-06
2.37733e-06
-4.27598e-06
5.59065e-07
-3.169e-06
-1.60749e-06
-1.30519e-06
-3.08607e-06
-2.18922e-06
-5.09943e-07
-6.51376e-07
3.53927e-06
-1.35659e-06
-8.0643e-07
5.61885e-06
-2.31281e-06
-6.55366e-07
5.96301e-06
-3.3838e-06
-3.51467e-07
5.60376e-06
-4.54226e-06
6.04018e-09
4.71403e-06
-5.55619e-06
2.82438e-07
3.10883e-06
-5.92102e-06
3.87045e-07
5.36843e-07
-4.95519e-06
2.38629e-07
-2.81194e-06
-2.45585e-06
5.71422e-10
-5.58598e-06
8.8595e-09
-4.65393e-06
-1.471e-06
-1.07824e-06
5.87025e-06
-3.84011e-06
-1.41943e-06
1.01817e-05
-6.36817e-06
-1.12452e-06
1.08988e-05
-8.81758e-06
-5.13532e-07
9.78891e-06
-1.09827e-05
1.88611e-07
7.26635e-06
-1.24506e-05
7.68572e-07
3.13749e-06
-1.24427e-05
1.0157e-06
-2.72572e-06
-9.97403e-06
7.68963e-07
-9.5299e-06
-4.84128e-06
2.38562e-07
-1.40599e-05
1.11101e-08
-9.88176e-06
-2.21429e-06
-1.0268e-06
6.57669e-06
-5.7296e-06
-1.3913e-06
1.17067e-05
-9.30488e-06
-1.07481e-06
1.24245e-05
-1.24552e-05
-4.18005e-07
1.06992e-05
-1.48837e-05
3.31564e-07
7.0939e-06
-1.61534e-05
9.44195e-07
1.54333e-06
-1.55623e-05
1.19483e-06
-5.88151e-06
-1.2164e-05
9.27066e-07
-1.40657e-05
-5.83115e-06
3.53306e-07
-1.89669e-05
1.77619e-08
-1.25907e-05
-2.696e-06
-6.05467e-07
6.75175e-06
-6.93654e-06
-8.3106e-07
1.20909e-05
-1.10965e-05
-6.2967e-07
1.26719e-05
-1.45178e-05
-2.14357e-07
1.05318e-05
-1.68865e-05
2.55895e-07
6.35795e-06
-1.78365e-05
6.3499e-07
1.86746e-07
-1.68284e-05
7.7354e-07
-7.7467e-06
-1.29944e-05
5.94991e-07
-1.63446e-05
-6.20148e-06
2.37111e-07
-2.12702e-05
1.45684e-08
-1.38367e-05
-2.92584e-06
4.0138e-13
6.77934e-06
-7.50638e-06
2.54041e-13
1.21445e-05
-1.19135e-05
1.12881e-13
1.26239e-05
-1.54045e-05
9.85302e-14
1.02839e-05
-1.76746e-05
1.81239e-13
5.88698e-06
-1.84354e-05
2.20587e-13
-4.58637e-07
-1.72389e-05
2.48069e-13
-8.51833e-06
-1.32615e-05
2.48733e-13
-1.72124e-05
-6.3295e-06
2.04499e-13
-2.21331e-05
1.84191e-13
-1.43075e-05
-2.92584e-06
6.05467e-07
6.77934e-06
-7.50638e-06
8.3106e-07
1.21445e-05
-1.19135e-05
6.29671e-07
1.26239e-05
-1.54045e-05
2.14358e-07
1.02839e-05
-1.76746e-05
-2.55894e-07
5.88698e-06
-1.84354e-05
-6.3499e-07
-4.58637e-07
-1.72389e-05
-7.7354e-07
-8.51833e-06
-1.32615e-05
-5.9499e-07
-1.72124e-05
-6.3295e-06
-2.3711e-07
-2.21331e-05
-1.45681e-08
-1.43075e-05
-2.696e-06
1.0268e-06
6.75175e-06
-6.93654e-06
1.3913e-06
1.20909e-05
-1.10965e-05
1.07481e-06
1.26719e-05
-1.45178e-05
4.18005e-07
1.05318e-05
-1.68865e-05
-3.31564e-07
6.35795e-06
-1.78365e-05
-9.44195e-07
1.86746e-07
-1.68284e-05
-1.19483e-06
-7.7467e-06
-1.29944e-05
-9.27065e-07
-1.63446e-05
-6.20148e-06
-3.53306e-07
-2.12702e-05
-1.77616e-08
-1.38367e-05
-2.21429e-06
1.07824e-06
6.57669e-06
-5.7296e-06
1.41943e-06
1.17067e-05
-9.30488e-06
1.12453e-06
1.24245e-05
-1.24552e-05
5.13532e-07
1.06992e-05
-1.48837e-05
-1.88611e-07
7.0939e-06
-1.61534e-05
-7.68572e-07
1.54333e-06
-1.55623e-05
-1.0157e-06
-5.88151e-06
-1.2164e-05
-7.68963e-07
-1.40657e-05
-5.83115e-06
-2.38562e-07
-1.89669e-05
-1.11099e-08
-1.25907e-05
-1.471e-06
6.51376e-07
5.87025e-06
-3.84011e-06
8.0643e-07
1.01817e-05
-6.36817e-06
6.55366e-07
1.08988e-05
-8.81758e-06
3.51467e-07
9.78891e-06
-1.09827e-05
-6.03996e-09
7.26635e-06
-1.24506e-05
-2.82438e-07
3.13749e-06
-1.24427e-05
-3.87045e-07
-2.72572e-06
-9.97403e-06
-2.38629e-07
-9.5299e-06
-4.84128e-06
-5.7137e-10
-1.40599e-05
-8.85957e-09
-9.88176e-06
-5.09944e-07
3.53927e-06
-1.35659e-06
5.61885e-06
-2.31281e-06
5.96301e-06
-3.3838e-06
5.60376e-06
-4.54226e-06
4.71403e-06
-5.55619e-06
3.10883e-06
-5.92102e-06
5.36843e-07
-4.95519e-06
-2.81194e-06
-2.45585e-06
-5.58598e-06
-4.65393e-06
-7.02648e-07
-7.27852e-07
4.96977e-06
-1.52839e-06
-8.28297e-07
7.27289e-06
-2.36448e-06
-5.14967e-07
7.31407e-06
-3.41283e-06
3.89602e-08
6.61315e-06
-4.80576e-06
6.79429e-07
5.42753e-06
-6.41431e-06
1.24833e-06
3.46905e-06
-7.61017e-06
1.51508e-06
2.17616e-07
-7.2336e-06
1.22152e-06
-4.41003e-06
-4.2816e-06
4.91735e-07
-9.02971e-06
-6.43078e-08
-8.87123e-06
-1.75894e-06
-1.17361e-06
8.07494e-06
-4.15497e-06
-1.42953e-06
1.31789e-05
-6.53154e-06
-8.49827e-07
1.36103e-05
-8.90521e-06
1.89195e-07
1.20123e-05
-1.13177e-05
1.37546e-06
8.98279e-06
-1.34879e-05
2.37368e-06
4.18232e-06
-1.45637e-05
2.7787e-06
-2.91347e-06
-1.29956e-05
2.22867e-06
-1.21051e-05
-7.41424e-06
9.47602e-07
-2.00972e-05
-5.88741e-08
-1.73014e-05
-2.51093e-06
-1.09661e-06
9.01062e-06
-6.05295e-06
-1.37642e-06
1.51956e-05
-9.41603e-06
-7.79902e-07
1.57176e-05
-1.23609e-05
2.86345e-07
1.35469e-05
-1.4848e-05
1.47181e-06
9.48462e-06
-1.6643e-05
2.413e-06
3.29901e-06
-1.7082e-05
2.70685e-06
-5.37062e-06
-1.47791e-05
2.09139e-06
-1.62313e-05
-8.35617e-06
8.69525e-07
-2.53118e-05
-2.98905e-08
-2.09758e-05
-2.97484e-06
-6.3864e-07
9.26862e-06
-7.20803e-06
-8.11808e-07
1.57595e-05
-1.10714e-05
-4.42816e-07
1.61982e-05
-1.41477e-05
2.11961e-07
1.36825e-05
-1.64018e-05
9.23238e-07
9.16062e-06
-1.77502e-05
1.45795e-06
2.49019e-06
-1.77629e-05
1.58779e-06
-6.61497e-06
-1.5218e-05
1.18705e-06
-1.79851e-05
-8.64904e-06
4.79607e-07
-2.74493e-05
-8.89063e-09
-2.25068e-05
-3.18763e-06
2.53919e-13
9.32833e-06
-7.73052e-06
1.37344e-13
1.58756e-05
-1.17841e-05
4.66304e-14
1.62346e-05
-1.48482e-05
8.00647e-14
1.35599e-05
-1.69212e-05
1.52081e-13
8.8833e-06
-1.80234e-05
2.36536e-13
2.10147e-06
-1.78789e-05
2.7258e-13
-7.07501e-06
-1.53116e-05
2.78496e-13
-1.85926e-05
-8.75563e-06
2.4742e-13
-2.82095e-05
2.3881e-13
-2.30721e-05
-3.18763e-06
6.3864e-07
9.32833e-06
-7.73052e-06
8.11808e-07
1.58756e-05
-1.17841e-05
4.42816e-07
1.62346e-05
-1.48482e-05
-2.11961e-07
1.35599e-05
-1.69212e-05
-9.23238e-07
8.8833e-06
-1.80234e-05
-1.45795e-06
2.10147e-06
-1.78789e-05
-1.58779e-06
-7.07501e-06
-1.53116e-05
-1.18705e-06
-1.85926e-05
-8.75563e-06
-4.79607e-07
-2.82095e-05
8.891e-09
-2.30721e-05
-2.97484e-06
1.09661e-06
9.26862e-06
-7.20803e-06
1.37642e-06
1.57595e-05
-1.10714e-05
7.79902e-07
1.61982e-05
-1.41477e-05
-2.86345e-07
1.36825e-05
-1.64018e-05
-1.47181e-06
9.16062e-06
-1.77502e-05
-2.413e-06
2.49019e-06
-1.77629e-05
-2.70685e-06
-6.61497e-06
-1.5218e-05
-2.09139e-06
-1.79851e-05
-8.64904e-06
-8.69525e-07
-2.74493e-05
2.98908e-08
-2.25068e-05
-2.51093e-06
1.17361e-06
9.01062e-06
-6.05295e-06
1.42953e-06
1.51956e-05
-9.41603e-06
8.49828e-07
1.57176e-05
-1.23609e-05
-1.89194e-07
1.35469e-05
-1.4848e-05
-1.37546e-06
9.48462e-06
-1.6643e-05
-2.37368e-06
3.29901e-06
-1.7082e-05
-2.7787e-06
-5.37062e-06
-1.47791e-05
-2.22867e-06
-1.62313e-05
-8.35617e-06
-9.47602e-07
-2.53118e-05
5.88742e-08
-2.09758e-05
-1.75894e-06
7.27852e-07
8.07494e-06
-4.15497e-06
8.28297e-07
1.31789e-05
-6.53154e-06
5.14967e-07
1.36103e-05
-8.90521e-06
-3.89598e-08
1.20123e-05
-1.13177e-05
-6.79429e-07
8.98279e-06
-1.34879e-05
-1.24833e-06
4.18232e-06
-1.45637e-05
-1.51508e-06
-2.91347e-06
-1.29956e-05
-1.22152e-06
-1.21051e-05
-7.41424e-06
-4.91735e-07
-2.00972e-05
6.43078e-08
-1.73014e-05
-7.02649e-07
4.96977e-06
-1.52839e-06
7.27289e-06
-2.36448e-06
7.31407e-06
-3.41283e-06
6.61315e-06
-4.80576e-06
5.42753e-06
-6.41431e-06
3.46905e-06
-7.61017e-06
2.17616e-07
-7.2336e-06
-4.41003e-06
-4.2816e-06
-9.02971e-06
-8.87123e-06
-1.23573e-06
-8.2998e-07
7.03548e-06
-1.85393e-06
-8.4168e-07
8.73277e-06
-2.21304e-06
-3.23913e-07
7.9971e-06
-2.84719e-06
5.13529e-07
6.73377e-06
-4.1441e-06
1.4928e-06
5.23164e-06
-6.18164e-06
2.42903e-06
3.07757e-06
-8.41997e-06
2.96916e-06
-5.13215e-07
-9.22443e-06
2.58573e-06
-6.19129e-06
-6.50296e-06
1.20369e-06
-1.29549e-05
-2.9255e-07
-1.50816e-05
-2.39373e-06
-1.2688e-06
1.09075e-05
-4.42052e-06
-1.40919e-06
1.57732e-05
-5.94214e-06
-5.18491e-07
1.53264e-05
-7.40949e-06
9.37253e-07
1.3056e-05
-9.23225e-06
2.58054e-06
9.71781e-06
-1.14656e-05
3.9953e-06
4.84937e-06
-1.35183e-05
4.60495e-06
-2.49649e-06
-1.36557e-05
3.75972e-06
-1.31417e-05
-9.28593e-06
1.57995e-06
-2.48433e-05
-4.15168e-07
-2.64648e-05
-3.03812e-06
-1.1478e-06
1.19277e-05
-6.06326e-06
-1.32306e-06
1.81347e-05
-8.33837e-06
-4.5241e-07
1.79267e-05
-1.00622e-05
9.62285e-07
1.52457e-05
-1.15774e-05
2.49684e-06
1.10835e-05
-1.30593e-05
3.69998e-06
5.07626e-06
-1.42557e-05
4.04501e-06
-3.61436e-06
-1.38854e-05
3.09228e-06
-1.59341e-05
-9.47044e-06
1.16605e-06
-2.93128e-05
-3.36902e-07
-3.05245e-05
-3.40059e-06
-6.55841e-07
1.21773e-05
-6.98405e-06
-7.68036e-07
1.87879e-05
-9.59598e-06
-2.4594e-07
1.86037e-05
-1.12688e-05
5.95883e-07
1.57217e-05
-1.23628e-05
1.48072e-06
1.12707e-05
-1.32422e-05
2.12763e-06
4.94191e-06
-1.39704e-05
2.24233e-06
-4.08406e-06
-1.35547e-05
1.63512e-06
-1.69437e-05
-9.43064e-06
5.71673e-07
-3.09789e-05
-1.71668e-07
-3.21026e-05
-3.55623e-06
2.25577e-13
1.22287e-05
-7.37337e-06
1.20912e-13
1.89247e-05
-1.00919e-05
4.20977e-14
1.87072e-05
-1.16731e-05
7.30053e-14
1.5737e-05
-1.25187e-05
1.51384e-13
1.12097e-05
-1.31236e-05
2.43828e-13
4.83396e-06
-1.37148e-05
2.98383e-13
-4.24146e-06
-1.33877e-05
3.08774e-13
-1.72846e-05
-9.44425e-06
2.83373e-13
-3.15813e-05
2.64594e-13
-3.2688e-05
-3.55623e-06
6.55841e-07
1.22287e-05
-7.37337e-06
7.68036e-07
1.89247e-05
-1.00919e-05
2.4594e-07
1.87072e-05
-1.16731e-05
-5.95883e-07
1.5737e-05
-1.25187e-05
-1.48072e-06
1.12097e-05
-1.31236e-05
-2.12763e-06
4.83396e-06
-1.37148e-05
-2.24233e-06
-4.24146e-06
-1.33877e-05
-1.63512e-06
-1.72846e-05
-9.44425e-06
-5.71673e-07
-3.15813e-05
1.71669e-07
-3.2688e-05
-3.40059e-06
1.1478e-06
1.21773e-05
-6.98405e-06
1.32306e-06
1.87879e-05
-9.59598e-06
4.5241e-07
1.86037e-05
-1.12688e-05
-9.62285e-07
1.57217e-05
-1.23628e-05
-2.49684e-06
1.12707e-05
-1.32422e-05
-3.69998e-06
4.94191e-06
-1.39704e-05
-4.04501e-06
-4.08406e-06
-1.35547e-05
-3.09227e-06
-1.69437e-05
-9.43064e-06
-1.16605e-06
-3.09789e-05
3.36902e-07
-3.21026e-05
-3.03812e-06
1.2688e-06
1.19277e-05
-6.06326e-06
1.40919e-06
1.81347e-05
-8.33837e-06
5.18491e-07
1.79267e-05
-1.00622e-05
-9.37253e-07
1.52457e-05
-1.15774e-05
-2.58054e-06
1.10835e-05
-1.30593e-05
-3.99529e-06
5.07626e-06
-1.42557e-05
-4.60495e-06
-3.61436e-06
-1.38854e-05
-3.75972e-06
-1.59341e-05
-9.47044e-06
-1.57995e-06
-2.93128e-05
4.15168e-07
-3.05245e-05
-2.39373e-06
8.2998e-07
1.09075e-05
-4.42052e-06
8.4168e-07
1.57732e-05
-5.94214e-06
3.23914e-07
1.53264e-05
-7.40949e-06
-5.13529e-07
1.3056e-05
-9.23225e-06
-1.4928e-06
9.71781e-06
-1.14656e-05
-2.42903e-06
4.84937e-06
-1.35183e-05
-2.96916e-06
-2.49649e-06
-1.36557e-05
-2.58573e-06
-1.31417e-05
-9.28593e-06
-1.20369e-06
-2.48433e-05
2.9255e-07
-2.64648e-05
-1.23573e-06
7.03548e-06
-1.85393e-06
8.73276e-06
-2.21304e-06
7.9971e-06
-2.84719e-06
6.73377e-06
-4.1441e-06
5.23164e-06
-6.18164e-06
3.07757e-06
-8.41997e-06
-5.13215e-07
-9.22443e-06
-6.19129e-06
-6.50296e-06
-1.29549e-05
-1.50816e-05
-2.48072e-06
-1.08632e-06
1.06025e-05
-2.2517e-06
-1.0778e-06
9.58155e-06
-1.31038e-06
-3.95356e-07
7.45113e-06
-7.54532e-07
6.65385e-07
5.51254e-06
-1.23407e-06
1.89662e-06
3.81455e-06
-3.084e-06
3.13545e-06
1.79205e-06
-6.14726e-06
4.02656e-06
-1.47651e-06
-8.67962e-06
3.68942e-06
-7.34835e-06
-7.66864e-06
1.63169e-06
-1.55975e-05
-1.00607e-06
-2.17442e-05
-4.04008e-06
-1.53026e-06
1.53915e-05
-4.71587e-06
-1.66153e-06
1.70328e-05
-3.93088e-06
-6.03262e-07
1.47494e-05
-2.96945e-06
1.04637e-06
1.17136e-05
-2.69596e-06
2.90558e-06
8.43537e-06
-3.60438e-06
4.57994e-06
4.3133e-06
-5.75754e-06
5.50094e-06
-1.8177e-06
-8.06251e-06
4.61529e-06
-1.17626e-05
-7.44837e-06
1.64202e-06
-2.54677e-05
-1.36899e-06
-3.35502e-05
-4.65636e-06
-1.30359e-06
1.63574e-05
-6.0429e-06
-1.47369e-06
1.93334e-05
-5.59709e-06
-5.00647e-07
1.73782e-05
-4.42502e-06
9.99916e-07
1.41201e-05
-3.35489e-06
2.61271e-06
1.03063e-05
-3.03323e-06
3.93675e-06
5.39779e-06
-3.91335e-06
4.47113e-06
-1.70443e-06
-5.79802e-06
3.47621e-06
-1.29103e-05
-6.01624e-06
1.0407e-06
-2.84933e-05
-1.00826e-06
-3.69015e-05
-4.91946e-06
-7.18482e-07
1.65116e-05
-6.66846e-06
-8.26775e-07
1.989e-05
-6.36616e-06
-2.62833e-07
1.80636e-05
-5.00572e-06
5.96705e-07
1.47645e-05
-3.43121e-06
1.48973e-06
1.08192e-05
-2.44044e-06
2.17451e-06
5.71338e-06
-2.77222e-06
2.37999e-06
-1.66113e-06
-4.69238e-06
1.7601e-06
-1.33074e-05
-5.514e-06
4.75685e-07
-2.95923e-05
-4.81644e-07
-3.81432e-05
-5.0117e-06
2.17418e-13
1.65219e-05
-6.89303e-06
1.3227e-13
1.99792e-05
-6.61822e-06
6.25147e-14
1.81695e-05
-5.14105e-06
7.2968e-14
1.48565e-05
-3.33646e-06
1.33206e-13
1.08948e-05
-2.09867e-06
2.226e-13
5.77068e-06
-2.29784e-06
3.0603e-13
-1.6623e-06
-4.35147e-06
3.17516e-13
-1.34708e-05
-5.44033e-06
2.77627e-13
-3.00167e-05
2.37176e-13
-3.86099e-05
-5.0117e-06
7.18482e-07
1.65219e-05
-6.89303e-06
8.26775e-07
1.99792e-05
-6.61822e-06
2.62833e-07
1.81695e-05
-5.14105e-06
-5.96705e-07
1.48565e-05
-3.33646e-06
-1.48973e-06
1.08948e-05
-2.09867e-06
-2.17451e-06
5.77068e-06
-2.29784e-06
-2.37999e-06
-1.6623e-06
-4.35147e-06
-1.7601e-06
-1.34708e-05
-5.44033e-06
-4.75685e-07
-3.00167e-05
4.81645e-07
-3.86099e-05
-4.91946e-06
1.30359e-06
1.65116e-05
-6.66846e-06
1.47369e-06
1.989e-05
-6.36616e-06
5.00647e-07
1.80636e-05
-5.00572e-06
-9.99916e-07
1.47645e-05
-3.43121e-06
-2.61271e-06
1.08192e-05
-2.44044e-06
-3.93675e-06
5.71338e-06
-2.77222e-06
-4.47113e-06
-1.66113e-06
-4.69238e-06
-3.47621e-06
-1.33074e-05
-5.514e-06
-1.0407e-06
-2.95923e-05
1.00826e-06
-3.81432e-05
-4.65636e-06
1.53026e-06
1.63574e-05
-6.0429e-06
1.66153e-06
1.93334e-05
-5.59709e-06
6.03262e-07
1.73782e-05
-4.42502e-06
-1.04637e-06
1.41201e-05
-3.35489e-06
-2.90558e-06
1.03063e-05
-3.03323e-06
-4.57994e-06
5.39779e-06
-3.91335e-06
-5.50094e-06
-1.70443e-06
-5.79803e-06
-4.61529e-06
-1.29103e-05
-6.01624e-06
-1.64202e-06
-2.84933e-05
1.36899e-06
-3.69015e-05
-4.04008e-06
1.08632e-06
1.53915e-05
-4.71587e-06
1.0778e-06
1.70328e-05
-3.93088e-06
3.95356e-07
1.47494e-05
-2.96945e-06
-6.65385e-07
1.17136e-05
-2.69596e-06
-1.89662e-06
8.43537e-06
-3.60438e-06
-3.13545e-06
4.3133e-06
-5.75754e-06
-4.02656e-06
-1.8177e-06
-8.06251e-06
-3.68942e-06
-1.17626e-05
-7.44837e-06
-1.63169e-06
-2.54677e-05
1.00607e-06
-3.35502e-05
-2.48072e-06
1.06025e-05
-2.2517e-06
9.58155e-06
-1.31038e-06
7.45113e-06
-7.54533e-07
5.51254e-06
-1.23407e-06
3.81455e-06
-3.084e-06
1.79205e-06
-6.14726e-06
-1.47651e-06
-8.67962e-06
-7.34835e-06
-7.66864e-06
-1.55975e-05
-2.17442e-05
-2.67432e-06
-1.85767e-06
1.51345e-05
5.00749e-07
-1.98324e-06
8.38971e-06
4.53192e-06
-1.19723e-06
4.61719e-06
7.39391e-06
-1.45316e-07
2.79586e-06
8.58613e-06
1.09422e-06
1.52812e-06
7.66434e-06
2.38172e-06
3.32108e-07
4.35713e-06
3.55435e-06
-1.72366e-06
-6.14819e-07
3.45922e-06
-5.83562e-06
-3.47021e-06
9.15284e-07
-1.36574e-05
-2.71352e-06
-2.25009e-05
-4.77955e-06
-2.23082e-06
2.05442e-05
-7.97078e-07
-2.67292e-06
1.374e-05
5.11128e-06
-1.76828e-06
9.41205e-06
1.02557e-05
-3.00876e-07
6.72472e-06
1.39361e-05
1.36788e-06
4.48131e-06
1.54636e-05
3.00921e-06
2.15832e-06
1.40245e-05
4.28011e-06
-1.10439e-06
9.30487e-06
3.8533e-06
-7.43709e-06
3.08743e-06
7.09612e-07
-1.90446e-05
-2.75198e-06
-3.04243e-05
-5.54513e-06
-1.70717e-06
2.13789e-05
-1.7623e-06
-2.16794e-06
1.50455e-05
4.30028e-06
-1.44497e-06
1.09923e-05
1.01227e-05
-2.45087e-07
8.24189e-06
1.49395e-05
1.1023e-06
5.75504e-06
1.79483e-05
2.35448e-06
3.04373e-06
1.78963e-05
3.20642e-06
-5.78704e-07
1.36912e-05
2.76297e-06
-7.61491e-06
5.70535e-06
4.479e-07
-2.02458e-05
-1.72156e-06
-3.22266e-05
-5.74054e-06
-8.86436e-07
2.14314e-05
-2.10008e-06
-1.15353e-06
1.52352e-05
3.96075e-06
-7.58763e-07
1.13165e-05
9.99179e-06
-1.14261e-07
8.60265e-06
1.52223e-05
5.99581e-07
6.09132e-06
1.87602e-05
1.23826e-06
3.29173e-06
1.91109e-05
1.63324e-06