/*--------------------------------*- C++ -*----------------------------------*\
  =========                 |
  \\      /  F ield         | OpenFOAM: The Open Source CFD Toolbox
   \\    /   O peration     | Website:  https://openfoam.org
    \\  /    A nd           | Version:  9
     \\/     M anipulation  |
\*---------------------------------------------------------------------------*/
FoamFile
{
    format      ascii;
    class       volVectorField;
    location    "0.65";
    object      U;
}
// * * * * * * * * * * * * * * * * * * * * * * * * * * * * * * * * * * * * * //

dimensions      [0 1 -1 0 0 0 0];

internalField   nonuniform List<vector> 
1000
(
(1.35758e-05 -0.000493878 0.000343899)
(-0.00144006 -0.000453975 0.00107027)
(-0.00461271 -0.000411036 0.00141624)
(-0.00798088 -0.000520694 0.00156097)
(-0.0108577 -0.000825126 0.00152184)
(-0.0123027 -0.0012859 0.00120953)
(-0.0113896 -0.00174421 0.000609988)
(-0.00785778 -0.00191431 -5.18588e-05)
(-0.00263529 -0.00152715 -0.000246674)
(0.000101543 -0.000456688 0.000354149)
(-0.000173538 -0.00174177 0.00059636)
(-0.00346577 -0.00213383 0.002278)
(-0.0101261 -0.00221539 0.0030127)
(-0.0169518 -0.00255293 0.0030995)
(-0.0224802 -0.00331065 0.00261367)
(-0.0249602 -0.00438728 0.00145704)
(-0.0227731 -0.00537342 -0.000241898)
(-0.0155986 -0.00557783 -0.00176114)
(-0.00545493 -0.00442334 -0.0017878)
(-2.43519e-05 -0.00163379 0.000206568)
(-0.000364754 -0.00259949 0.000297605)
(-0.00496743 -0.00363936 0.00233267)
(-0.0139265 -0.00395649 0.00320574)
(-0.0229031 -0.00441387 0.00315456)
(-0.0299249 -0.00527157 0.00225073)
(-0.0327432 -0.00641067 0.000418543)
(-0.0293583 -0.00730545 -0.002066)
(-0.0195657 -0.0072615 -0.0039774)
(-0.00629583 -0.00573866 -0.00346466)
(0.000321903 -0.00243778 -7.19069e-05)
(-0.0004982 -0.00219837 -0.000100978)
(-0.00597458 -0.00321905 0.00199271)
(-0.0164322 -0.00354616 0.0028873)
(-0.0267647 -0.00391595 0.00271332)
(-0.0346553 -0.00454955 0.00151152)
(-0.0374834 -0.00535219 -0.000772373)
(-0.0330711 -0.00590026 -0.00371907)
(-0.0214652 -0.00573953 -0.00574964)
(-0.00625711 -0.00453249 -0.00469019)
(0.000785967 -0.00204043 -0.000263887)
(-0.00056883 -0.00084812 -0.000348429)
(-0.0064872 -0.00126326 0.00173078)
(-0.0176905 -0.00139811 0.0026188)
(-0.028681 -0.00153651 0.00237622)
(-0.036961 -0.00176236 0.00102064)
(-0.0397335 -0.00203912 -0.00148983)
(-0.0347448 -0.00222063 -0.00463192)
(-0.0222027 -0.00214078 -0.00667201)
(-0.00607288 -0.00169151 -0.00529425)
(0.00107924 -0.000780879 -0.000350738)
(-0.00056883 0.000848147 -0.000348429)
(-0.0064872 0.00126328 0.00173078)
(-0.0176905 0.00139813 0.0026188)
(-0.028681 0.00153652 0.00237622)
(-0.036961 0.00176237 0.00102064)
(-0.0397335 0.00203913 -0.00148983)
(-0.0347448 0.00222064 -0.00463192)
(-0.0222027 0.00214079 -0.00667201)
(-0.00607288 0.00169152 -0.00529425)
(0.00107924 0.000780883 -0.000350739)
(-0.000498201 0.0021984 -0.000100978)
(-0.00597458 0.00321908 0.00199271)
(-0.0164323 0.00354617 0.00288729)
(-0.0267647 0.00391596 0.00271332)
(-0.0346553 0.00454956 0.00151152)
(-0.0374834 0.0053522 -0.000772373)
(-0.0330711 0.00590026 -0.00371907)
(-0.0214652 0.00573953 -0.00574964)
(-0.00625711 0.00453249 -0.00469019)
(0.000785966 0.00204043 -0.000263888)
(-0.000364757 0.00259954 0.000297602)
(-0.00496744 0.00363939 0.00233267)
(-0.0139265 0.00395651 0.00320574)
(-0.0229031 0.00441388 0.00315456)
(-0.0299249 0.00527158 0.00225073)
(-0.0327432 0.00641068 0.000418542)
(-0.0293583 0.00730545 -0.002066)
(-0.0195657 0.00726151 -0.0039774)
(-0.00629583 0.00573866 -0.00346466)
(0.000321903 0.00243779 -7.19077e-05)
(-0.000173552 0.00174187 0.000596346)
(-0.0034658 0.00213387 0.00227799)
(-0.0101261 0.0022154 0.00301269)
(-0.0169518 0.00255294 0.0030995)
(-0.0224802 0.00331065 0.00261367)
(-0.0249602 0.00438729 0.00145703)
(-0.0227731 0.00537342 -0.000241899)
(-0.0155986 0.00557783 -0.00176114)
(-0.00545493 0.00442334 -0.0017878)
(-2.4352e-05 0.00163379 0.000206567)
(1.35174e-05 0.000493944 0.00034384)
(-0.00144015 0.000453996 0.00107025)
(-0.00461276 0.000411042 0.00141624)
(-0.0079809 0.000520699 0.00156097)
(-0.0108577 0.00082513 0.00152184)
(-0.0123027 0.00128591 0.00120953)
(-0.0113896 0.00174421 0.000609987)
(-0.00785778 0.00191431 -5.18595e-05)
(-0.00263529 0.00152715 -0.000246674)
(0.000101543 0.000456689 0.000354149)
(-0.000636623 -0.00141134 0.00341753)
(-0.00412845 -0.00180476 0.00684295)
(-0.0101644 -0.00184522 0.00816558)
(-0.0163508 -0.00188882 0.00833917)
(-0.0215261 -0.00207555 0.00747039)
(-0.0241532 -0.00242154 0.005325)
(-0.0226981 -0.00277747 0.00201017)
(-0.0165063 -0.00279703 -0.00142993)
(-0.00679634 -0.00205458 -0.00283482)
(-0.000665951 -0.000306384 -0.000564904)
(-0.0019596 -0.00415483 0.00569954)
(-0.0107833 -0.00582311 0.0129799)
(-0.0250502 -0.0061302 0.0155621)
(-0.0389945 -0.00628664 0.0149879)
(-0.0498121 -0.00675039 0.011615)
(-0.0544466 -0.00753175 0.00533779)
(-0.0502129 -0.00824497 -0.00293935)
(-0.0363012 -0.00801558 -0.0101438)
(-0.0157068 -0.00598373 -0.011101)
(-0.00215376 -0.00160975 -0.00295874)
(-0.00299788 -0.00550808 0.00552028)
(-0.0157819 -0.00827671 0.014155)
(-0.0358238 -0.0088782 0.0169994)
(-0.0547495 -0.009084 0.0154246)
(-0.0686598 -0.00955643 0.00981754)
(-0.0737279 -0.0102928 0.000317363)
(-0.0668271 -0.0107878 -0.0112591)
(-0.0474221 -0.0101941 -0.0201352)
(-0.0200148 -0.007743 -0.0190879)
(-0.00253194 -0.00280273 -0.00519626)
(-0.00367002 -0.00443963 0.00468651)
(-0.0190821 -0.00688271 0.0135325)
(-0.0428926 -0.00743412 0.0162351)
(-0.0648594 -0.00758048 0.0138105)
(-0.0803914 -0.00787464 0.006607)
(-0.0852113 -0.00831539 -0.00497258)
(-0.0761198 -0.00847425 -0.0184291)
(-0.0531 -0.00788328 -0.027797)
(-0.021684 -0.00605352 -0.0247283)
(-0.00237414 -0.00244365 -0.00667785)
(-0.00399672 -0.00167938 0.00409729)
(-0.0207181 -0.00263587 0.012874)
(-0.0463923 -0.00285363 0.0154232)
(-0.0697953 -0.00290179 0.0125266)
(-0.0859966 -0.00299109 0.0045069)
(-0.0905216 -0.00312287 -0.00805968)
(-0.0802186 -0.00314287 -0.0222948)
(-0.0554157 -0.00290386 -0.0317003)
(-0.0221787 -0.002244 -0.0274744)
(-0.00218828 -0.00094866 -0.00736702)
(-0.00399672 0.0016794 0.00409729)
(-0.0207181 0.00263589 0.012874)
(-0.0463923 0.00285364 0.0154232)
(-0.0697953 0.0029018 0.0125266)
(-0.0859966 0.00299109 0.0045069)
(-0.0905216 0.00312288 -0.00805968)
(-0.0802186 0.00314288 -0.0222948)
(-0.0554157 0.00290386 -0.0317003)
(-0.0221787 0.002244 -0.0274744)
(-0.00218828 0.000948664 -0.00736702)
(-0.00367003 0.00443966 0.00468651)
(-0.0190821 0.00688273 0.0135325)
(-0.0428926 0.00743414 0.0162351)
(-0.0648594 0.00758049 0.0138105)
(-0.0803914 0.00787465 0.006607)
(-0.0852113 0.0083154 -0.00497258)
(-0.0761198 0.00847425 -0.0184291)
(-0.0531 0.00788329 -0.027797)
(-0.021684 0.00605352 -0.0247283)
(-0.00237414 0.00244365 -0.00667785)
(-0.00299789 0.00550812 0.00552027)
(-0.0157819 0.00827674 0.014155)
(-0.0358238 0.00887822 0.0169994)
(-0.0547495 0.00908402 0.0154246)
(-0.0686598 0.00955644 0.00981753)
(-0.0737279 0.0102928 0.000317361)
(-0.0668271 0.0107878 -0.0112591)
(-0.0474221 0.0101941 -0.0201352)
(-0.0200148 0.00774301 -0.0190879)
(-0.00253194 0.00280274 -0.00519627)
(-0.0019596 0.00415487 0.00569951)
(-0.0107833 0.00582314 0.0129799)
(-0.0250502 0.00613021 0.0155621)
(-0.0389945 0.00628665 0.0149879)
(-0.0498121 0.0067504 0.011615)
(-0.0544466 0.00753175 0.00533779)
(-0.0502129 0.00824498 -0.00293936)
(-0.0363012 0.00801558 -0.0101438)
(-0.0157068 0.00598373 -0.011101)
(-0.00215376 0.00160975 -0.00295874)
(-0.00063664 0.00141136 0.00341744)
(-0.00412849 0.00180477 0.00684292)
(-0.0101644 0.00184523 0.00816557)
(-0.0163509 0.00188883 0.00833917)
(-0.0215261 0.00207555 0.00747039)
(-0.0241532 0.00242154 0.005325)
(-0.0226981 0.00277747 0.00201017)
(-0.0165063 0.00279703 -0.00142994)
(-0.00679634 0.00205458 -0.00283482)
(-0.000665951 0.000306386 -0.000564905)
(-0.00110841 -0.00220635 0.00996595)
(-0.00600433 -0.00290868 0.0178404)
(-0.0138958 -0.00290678 0.020399)
(-0.021954 -0.00272393 0.020155)
(-0.0290572 -0.00261836 0.0174501)
(-0.03346 -0.00272095 0.0118776)
(-0.0329905 -0.00295622 0.00366342)
(-0.0259019 -0.00299163 -0.00505201)
(-0.0125218 -0.00221076 -0.0094559)
(-0.00217652 -4.85015e-05 -0.00470674)
(-0.00345018 -0.00620458 0.0166078)
(-0.0166168 -0.0087234 0.032718)
(-0.0364669 -0.00881797 0.0374071)
(-0.0555299 -0.0082086 0.034809)
(-0.0707011 -0.00770257 0.0259027)
(-0.0784154 -0.00761465 0.010701)
(-0.0749539 -0.00775751 -0.00889803)
(-0.0577791 -0.00750164 -0.0266693)
(-0.0284934 -0.00565957 -0.0311327)
(-0.00544012 -0.000946033 -0.0131044)
(-0.00532051 -0.00789565 0.0176913)
(-0.0248634 -0.0117301 0.0366334)
(-0.0533981 -0.0119352 0.0414196)
(-0.0795915 -0.0109711 0.0361237)
(-0.0989911 -0.00995876 0.0219666)
(-0.10719 -0.00927834 -0.000345447)
(-0.100202 -0.00882325 -0.027015)
(-0.0757287 -0.00820433 -0.0487499)
(-0.0366718 -0.00641368 -0.0498034)
(-0.00672344 -0.00196435 -0.0195701)
(-0.00655491 -0.00621241 0.0170598)
(-0.0303608 -0.00947643 0.0364794)
(-0.0645364 -0.00964562 0.0406414)
(-0.0949181 -0.00876044 0.0331541)
(-0.116233 -0.00773902 0.0153894)
(-0.123805 -0.00688666 -0.0112234)
(-0.113855 -0.00623497 -0.0415906)
(-0.0847047 -0.00567685 -0.0644885)
(-0.040216 -0.00457747 -0.062074)
(-0.00699314 -0.0017266 -0.0235521)
(-0.00715817 -0.00232261 0.016426)
(-0.0330792 -0.00357989 0.0357316)
(-0.0700083 -0.00364042 0.0394024)
(-0.102288 -0.00328173 0.0307286)
(-0.124258 -0.00285356 0.0111883)
(-0.131214 -0.00247462 -0.0173359)
(-0.119634 -0.00218189 -0.0491062)
(-0.0882717 -0.00196959 -0.0721224)
(-0.0414569 -0.00161999 -0.0677764)
(-0.00698519 -0.000668964 -0.025335)
(-0.00715817 0.00232263 0.016426)
(-0.0330792 0.0035799 0.0357316)
(-0.0700083 0.00364043 0.0394024)
(-0.102288 0.00328174 0.0307286)
(-0.124258 0.00285356 0.0111883)
(-0.131214 0.00247463 -0.0173359)
(-0.119634 0.00218189 -0.0491062)
(-0.0882717 0.0019696 -0.0721224)
(-0.0414569 0.00161999 -0.0677764)
(-0.00698519 0.000668966 -0.025335)
(-0.00655491 0.00621243 0.0170598)
(-0.0303608 0.00947644 0.0364794)
(-0.0645364 0.00964563 0.0406414)
(-0.0949181 0.00876045 0.0331541)
(-0.116233 0.00773903 0.0153894)
(-0.123805 0.00688666 -0.0112234)
(-0.113855 0.00623497 -0.0415906)
(-0.0847047 0.00567685 -0.0644885)
(-0.040216 0.00457748 -0.062074)
(-0.00699314 0.0017266 -0.0235521)
(-0.00532051 0.00789567 0.0176913)
(-0.0248634 0.0117301 0.0366334)
(-0.0533981 0.0119352 0.0414196)
(-0.0795915 0.0109711 0.0361237)
(-0.0989911 0.00995876 0.0219666)
(-0.10719 0.00927835 -0.000345449)
(-0.100202 0.00882326 -0.027015)
(-0.0757287 0.00820433 -0.0487499)
(-0.0366718 0.00641368 -0.0498034)
(-0.00672344 0.00196435 -0.0195701)
(-0.00345018 0.0062046 0.0166078)
(-0.0166168 0.00872341 0.032718)
(-0.0364669 0.00881798 0.0374071)
(-0.05553 0.00820861 0.034809)
(-0.0707012 0.00770257 0.0259027)
(-0.0784154 0.00761466 0.010701)
(-0.0749539 0.00775751 -0.00889803)
(-0.0577791 0.00750164 -0.0266693)
(-0.0284934 0.00565958 -0.0311327)
(-0.00544012 0.000946036 -0.0131044)
(-0.00110841 0.00220636 0.0099659)
(-0.00600434 0.00290868 0.0178404)
(-0.0138959 0.00290678 0.020399)
(-0.021954 0.00272393 0.020155)
(-0.0290572 0.00261836 0.0174501)
(-0.03346 0.00272095 0.0118776)
(-0.0329905 0.00295622 0.00366342)
(-0.0259019 0.00299163 -0.00505201)
(-0.0125218 0.00221076 -0.00945591)
(-0.00217652 4.85023e-05 -0.00470674)
(-0.00148385 -0.00291412 0.0186411)
(-0.0073675 -0.00377767 0.0317526)
(-0.016489 -0.00353495 0.0353425)
(-0.0260105 -0.00287818 0.0342845)
(-0.0353054 -0.00221604 0.0293366)
(-0.0427189 -0.00185223 0.0197035)
(-0.0452773 -0.00192966 0.00523721)
(-0.0392106 -0.0022778 -0.0111888)
(-0.0224609 -0.00199277 -0.0212625)
(-0.00545779 0.000126387 -0.0136451)
(-0.00466558 -0.00800708 0.0311206)
(-0.0211875 -0.0109318 0.0577134)
(-0.0452123 -0.0101955 0.0641569)
(-0.0683771 -0.0080017 0.0586566)
(-0.088143 -0.00560176 0.0431603)
(-0.101018 -0.00384702 0.0174391)
(-0.102 -0.00318551 -0.0165824)
(-0.0852334 -0.00365001 -0.0501125)
(-0.0484145 -0.0035981 -0.063252)
(-0.0117183 -0.000192435 -0.0329589)
(-0.00721591 -0.00995012 0.034253)
(-0.0320863 -0.0142221 0.0655252)
(-0.0670711 -0.0131452 0.0717838)
(-0.0988917 -0.00981073 0.061704)
(-0.12365 -0.00595619 0.037903)
(-0.137145 -0.00275537 0.00124883)
(-0.134311 -0.00110979 -0.0439711)
(-0.109448 -0.0014976 -0.0848702)
(-0.0611434 -0.00244908 -0.0948821)
(-0.0143826 -0.000707682 -0.0456882)
(-0.00890202 -0.00770143 0.0343526)
(-0.0393304 -0.0112493 0.0665587)
(-0.0812986 -0.0102884 0.0716427)
(-0.11787 -0.00736376 0.0580513)
(-0.14438 -0.00392016 0.0289519)
(-0.156722 -0.000964201 -0.0136741)
(-0.150414 0.00054813 -0.0639248)
(-0.120541 0.000153427 -0.106996)
(-0.0665365 -0.00106832 -0.11345)
(-0.0152992 -0.000601971 -0.0527432)
(-0.00972162 -0.00285467 0.0339598)
(-0.0428755 -0.00420366 0.0661039)
(-0.0881706 -0.00381877 0.0703384)
(-0.126744 -0.00266797 0.0549207)
(-0.153615 -0.00130918 0.0233864)
(-0.164908 -0.000140459 -0.021616)
(-0.156697 0.000452034 -0.0735071)
(-0.124623 0.000272951 -0.116893)
(-0.0684452 -0.00026264 -0.12142)
(-0.0155718 -0.00022678 -0.0556874)
(-0.00972162 0.00285468 0.0339598)
(-0.0428755 0.00420367 0.0661039)
(-0.0881706 0.00381878 0.0703384)
(-0.126744 0.00266798 0.0549207)
(-0.153615 0.00130918 0.0233864)
(-0.164908 0.000140463 -0.021616)
(-0.156697 -0.00045203 -0.0735071)
(-0.124623 -0.000272948 -0.116893)
(-0.0684452 0.000262643 -0.12142)
(-0.0155718 0.000226782 -0.0556874)
(-0.00890202 0.00770144 0.0343526)
(-0.0393304 0.0112493 0.0665587)
(-0.0812986 0.0102884 0.0716427)
(-0.11787 0.00736376 0.0580513)
(-0.14438 0.00392017 0.0289519)
(-0.156722 0.000964205 -0.0136741)
(-0.150414 -0.000548126 -0.0639248)
(-0.120541 -0.000153424 -0.106996)
(-0.0665365 0.00106832 -0.11345)
(-0.0152992 0.000601974 -0.0527432)
(-0.00721591 0.00995014 0.034253)
(-0.0320863 0.0142222 0.0655252)
(-0.0670711 0.0131452 0.0717838)
(-0.0988917 0.00981073 0.061704)
(-0.12365 0.00595619 0.037903)
(-0.137145 0.00275537 0.00124883)
(-0.134311 0.00110979 -0.0439711)
(-0.109448 0.00149761 -0.0848702)
(-0.0611434 0.00244908 -0.0948821)
(-0.0143826 0.000707684 -0.0456882)
(-0.00466558 0.00800709 0.0311206)
(-0.0211875 0.0109318 0.0577134)
(-0.0452123 0.0101955 0.0641569)
(-0.0683771 0.00800171 0.0586566)
(-0.088143 0.00560176 0.0431603)
(-0.101018 0.00384702 0.0174391)
(-0.102 0.00318551 -0.0165824)
(-0.0852334 0.00365002 -0.0501125)
(-0.0484145 0.0035981 -0.063252)
(-0.0117183 0.000192437 -0.0329589)
(-0.00148385 0.00291413 0.0186411)
(-0.00736751 0.00377768 0.0317526)
(-0.016489 0.00353495 0.0353425)
(-0.0260105 0.00287819 0.0342844)
(-0.0353054 0.00221604 0.0293366)
(-0.0427189 0.00185223 0.0197035)
(-0.0452773 0.00192966 0.00523721)
(-0.0392106 0.0022778 -0.0111888)
(-0.0224609 0.00199277 -0.0212625)
(-0.00545779 -0.000126387 -0.0136451)
(-0.00202988 -0.00348348 0.0292849)
(-0.00867789 -0.00431809 0.0477565)
(-0.0182039 -0.00355505 0.0516817)
(-0.0284273 -0.00204711 0.0492203)
(-0.0398368 -0.000385605 0.0417136)
(-0.0514262 0.000917418 0.0277343)
(-0.0594938 0.00126937 0.00591043)
(-0.0574164 0.000355199 -0.0210993)
(-0.0390198 -0.000783398 -0.0411942)
(-0.0120339 3.13896e-05 -0.0314511)
(-0.00591087 -0.00939277 0.0487482)
(-0.0248644 -0.0121886 0.0865347)
(-0.0511497 -0.00983492 0.093939)
(-0.0766531 -0.00497947 0.0848799)
(-0.1004 0.000565025 0.0626179)
(-0.119861 0.00516298 0.0260069)
(-0.128962 0.00710085 -0.0245784)
(-0.117622 0.00505274 -0.0796819)
(-0.0776585 0.000914404 -0.110468)
(-0.0231032 8.75868e-05 -0.0693587)
(-0.00888146 -0.0114383 0.0544642)
(-0.0374149 -0.0154476 0.0991436)
(-0.0759529 -0.0120791 0.106287)
(-0.110658 -0.00502878 0.0912181)
(-0.139335 0.00308838 0.0584137)
(-0.159028 0.00980862 0.00804157)
(-0.163965 0.0126775 -0.0573352)
(-0.144583 0.00986591 -0.12412)
(-0.0938777 0.00360864 -0.155153)
(-0.0274858 0.000174263 -0.0909258)
(-0.0107961 -0.00872445 0.0556533)
(-0.0455787 -0.0119949 0.101949)
(-0.0916463 -0.00912277 0.1076)
(-0.130882 -0.00316454 0.0882611)
(-0.16049 0.00362917 0.049456)
(-0.177951 0.00911758 -0.00733212)
(-0.178795 0.0111753 -0.0782879)
(-0.15483 0.00858283 -0.148555)
(-0.0999576 0.00336521 -0.17795)
(-0.0291532 0.000205441 -0.101542)
(-0.0117065 -0.00320845 0.0556988)
(-0.0494852 -0.00443812 0.102103)
(-0.0990045 -0.00332121 0.106692)
(-0.139914 -0.00102461 0.0852398)
(-0.169236 0.001572 0.0439313)
(-0.185004 0.00362989 -0.0150327)
(-0.183725 0.00431994 -0.0874369)
(-0.158024 0.00326981 -0.1584)
(-0.102011 0.00130246 -0.186868)
(-0.0297665 9.1622e-05 -0.105668)
(-0.0117065 0.00320845 0.0556988)
(-0.0494852 0.00443813 0.102103)
(-0.0990045 0.00332121 0.106692)
(-0.139914 0.00102461 0.0852398)
(-0.169236 -0.001572 0.0439313)
(-0.185004 -0.00362988 -0.0150327)
(-0.183725 -0.00431994 -0.0874369)
(-0.158024 -0.00326981 -0.1584)
(-0.102011 -0.00130246 -0.186868)
(-0.0297665 -9.16185e-05 -0.105668)
(-0.0107961 0.00872446 0.0556533)
(-0.0455787 0.0119949 0.101949)
(-0.0916463 0.00912277 0.1076)
(-0.130882 0.00316455 0.0882611)
(-0.16049 -0.00362916 0.049456)
(-0.177951 -0.00911757 -0.00733212)
(-0.178795 -0.0111752 -0.0782879)
(-0.15483 -0.00858283 -0.148555)
(-0.0999576 -0.00336521 -0.17795)
(-0.0291532 -0.000205438 -0.101542)
(-0.00888146 0.0114383 0.0544642)
(-0.0374149 0.0154476 0.0991435)
(-0.0759529 0.0120792 0.106287)
(-0.110658 0.00502878 0.0912181)
(-0.139335 -0.00308838 0.0584137)
(-0.159028 -0.00980862 0.00804157)
(-0.163965 -0.0126775 -0.0573352)
(-0.144583 -0.00986591 -0.12412)
(-0.0938777 -0.00360864 -0.155153)
(-0.0274858 -0.000174261 -0.0909258)
(-0.00591087 0.00939278 0.0487481)
(-0.0248644 0.0121886 0.0865347)
(-0.0511497 0.00983492 0.093939)
(-0.0766531 0.00497947 0.0848799)
(-0.1004 -0.000565023 0.0626179)
(-0.119861 -0.00516297 0.0260069)
(-0.128962 -0.00710085 -0.0245784)
(-0.117622 -0.00505274 -0.0796819)
(-0.0776585 -0.000914403 -0.110468)
(-0.0231032 -8.75861e-05 -0.0693587)
(-0.00202988 0.00348348 0.0292849)
(-0.0086779 0.00431809 0.0477564)
(-0.0182039 0.00355505 0.0516817)
(-0.0284273 0.00204711 0.0492203)
(-0.0398368 0.000385606 0.0417136)
(-0.0514262 -0.000917418 0.0277343)
(-0.0594938 -0.00126937 0.00591043)
(-0.0574164 -0.000355199 -0.0210993)
(-0.0390198 0.000783398 -0.0411942)
(-0.0120339 -3.13895e-05 -0.0314511)
(-0.00336368 -0.00393933 0.0421219)
(-0.0109047 -0.00450175 0.0645575)
(-0.019354 -0.00287481 0.0670929)
(-0.0284827 -5.77617e-05 0.0621256)
(-0.040677 0.00323079 0.0517745)
(-0.0564652 0.00618546 0.0337129)
(-0.0721985 0.00762775 0.0044708)
(-0.0782172 0.00617985 -0.0355227)
(-0.0625187 0.00247069 -0.0712011)
(-0.0228367 -0.000323155 -0.0637168)
(-0.0079082 -0.0103591 0.0692445)
(-0.0284611 -0.0124174 0.116943)
(-0.0537114 -0.00762938 0.123455)
(-0.0775134 0.000922416 0.11012)
(-0.101717 0.0108357 0.0818743)
(-0.126023 0.0195082 0.0361053)
(-0.144634 0.0235053 -0.030166)
(-0.144099 0.0192344 -0.110698)
(-0.110324 0.00815296 -0.170701)
(-0.0387987 -0.000794541 -0.130302)
(-0.0109274 -0.0123133 0.0775681)
(-0.0411648 -0.0153856 0.134695)
(-0.078498 -0.00889169 0.141463)
(-0.110527 0.00280122 0.121796)
(-0.138014 0.0159886 0.0824423)
(-0.16061 0.0267528 0.0220877)
(-0.173585 0.0306002 -0.0607759)
(-0.165168 0.0240557 -0.157073)
(-0.12428 0.010078 -0.223929)
(-0.0435628 -0.000466398 -0.162857)
(-0.0127487 -0.00923739 0.0798278)
(-0.0490607 -0.0117469 0.139482)
(-0.0934227 -0.00643475 0.144971)
(-0.128823 0.00304816 0.121229)
(-0.15559 0.01345 0.0764714)
(-0.174287 0.0213839 0.0105875)
(-0.18226 0.0233956 -0.0774941)
(-0.169945 0.0175718 -0.178589)
(-0.128019 0.0070905 -0.247389)
(-0.0453334 -0.000169951 -0.177253)
(-0.0135764 -0.0033675 0.0803097)
(-0.0527001 -0.00430666 0.140357)
(-0.100112 -0.00228693 0.144854)
(-0.136454 0.0012889 0.119202)
(-0.162039 0.00514136 0.0724785)
(-0.178245 0.00795173 0.00515531)
(-0.183894 0.00848932 -0.0839775)
(-0.170574 0.00620455 -0.186333)
(-0.129169 0.00244783 -0.255883)
(-0.0460874 -2.6883e-05 -0.18262)
(-0.0135764 0.00336751 0.0803097)
(-0.0527001 0.00430666 0.140357)
(-0.100112 0.00228693 0.144854)
(-0.136454 -0.0012889 0.119202)
(-0.162039 -0.00514136 0.0724785)
(-0.178245 -0.00795172 0.00515531)
(-0.183894 -0.00848931 -0.0839775)
(-0.170574 -0.00620454 -0.186333)
(-0.129169 -0.00244783 -0.255883)
(-0.0460874 2.68872e-05 -0.18262)
(-0.0127487 0.00923739 0.0798278)
(-0.0490607 0.0117469 0.139482)
(-0.0934227 0.00643475 0.144971)
(-0.128823 -0.00304816 0.121229)
(-0.15559 -0.01345 0.0764714)
(-0.174287 -0.0213839 0.0105875)
(-0.18226 -0.0233956 -0.0774941)
(-0.169945 -0.0175718 -0.178589)
(-0.128019 -0.0070905 -0.247389)
(-0.0453334 0.000169954 -0.177253)
(-0.0109274 0.0123133 0.0775681)
(-0.0411648 0.0153856 0.134695)
(-0.078498 0.00889169 0.141463)
(-0.110527 -0.00280122 0.121796)
(-0.138014 -0.0159886 0.0824423)
(-0.16061 -0.0267528 0.0220877)
(-0.173585 -0.0306002 -0.0607759)
(-0.165168 -0.0240557 -0.157073)
(-0.12428 -0.010078 -0.223929)
(-0.0435628 0.0004664 -0.162857)
(-0.0079082 0.0103591 0.0692445)
(-0.0284611 0.0124174 0.116943)
(-0.0537114 0.00762938 0.123455)
(-0.0775134 -0.000922413 0.11012)
(-0.101717 -0.0108357 0.0818743)
(-0.126023 -0.0195082 0.0361053)
(-0.144634 -0.0235053 -0.030166)
(-0.144099 -0.0192344 -0.110698)
(-0.110324 -0.00815296 -0.170701)
(-0.0387987 0.000794542 -0.130302)
(-0.00336368 0.00393933 0.0421219)
(-0.0109047 0.00450175 0.0645575)
(-0.019354 0.00287481 0.0670929)
(-0.0284827 5.77631e-05 0.0621256)
(-0.0406771 -0.00323079 0.0517745)
(-0.0564652 -0.00618546 0.0337129)
(-0.0721985 -0.00762775 0.0044708)
(-0.0782172 -0.00617985 -0.0355227)
(-0.0625187 -0.00247069 -0.0712011)
(-0.0228367 0.000323155 -0.0637168)
(-0.0071041 -0.00460524 0.0592045)
(-0.0164123 -0.00472421 0.0806164)
(-0.0204638 -0.00194509 0.0782183)
(-0.0245211 0.00250627 0.0687608)
(-0.0336504 0.00779425 0.0552129)
(-0.0508668 0.012988 0.0340845)
(-0.0743583 0.0162503 -0.000741351)
(-0.0923564 0.0146047 -0.0539316)
(-0.0876192 0.00728845 -0.110309)
(-0.0361804 -0.00135609 -0.117162)
(-0.0127517 -0.0114871 0.0942894)
(-0.0347028 -0.0124181 0.145925)
(-0.0527724 -0.00474903 0.147275)
(-0.0668671 0.00775567 0.128286)
(-0.0828298 0.0222127 0.0957212)
(-0.104041 0.0354124 0.0454722)
(-0.127945 0.0422455 -0.0298865)
(-0.140597 0.0359298 -0.133382)
(-0.127123 0.0159863 -0.232407)
(-0.0500064 -0.00431093 -0.220642)
(-0.0154862 -0.0130608 0.104388)
(-0.0458021 -0.0149195 0.168063)
(-0.0740691 -0.00522171 0.17089)
(-0.0936184 0.0106765 0.146783)
(-0.109334 0.0282089 0.104624)
(-0.124862 0.0425364 0.0413865)
(-0.139737 0.0475426 -0.0495372)
(-0.143461 0.0373249 -0.170955)
(-0.128607 0.0145922 -0.284884)
(-0.0509454 -0.00415501 -0.262714)
(-0.0168997 -0.00954599 0.107088)
(-0.0521249 -0.0111564 0.17428)
(-0.085912 -0.00357814 0.176672)
(-0.107061 0.00874479 0.149721)
(-0.12017 0.0218166 0.103785)
(-0.129959 0.0315522 0.0366374)
(-0.138642 0.0335338 -0.0583549)
(-0.138782 0.0247045 -0.185423)
(-0.126631 0.00878544 -0.305197)
(-0.051421 -0.00260804 -0.279739)
(-0.0174841 -0.00343589 0.107709)
(-0.0548666 -0.00404715 0.175608)
(-0.0908649 -0.00123049 0.17738)
(-0.112099 0.00331208 0.149156)
(-0.123276 0.00801997 0.102105)
(-0.130045 0.0113325 0.0343114)
(-0.136309 0.0117082 -0.0613202)
(-0.135993 0.00832363 -0.190189)
(-0.12607 0.00281658 -0.312357)
(-0.0519498 -0.000842764 -0.286024)
(-0.0174841 0.0034359 0.107709)
(-0.0548666 0.00404716 0.175608)
(-0.0908649 0.00123049 0.17738)
(-0.112099 -0.00331208 0.149156)
(-0.123276 -0.00801997 0.102105)
(-0.130045 -0.0113325 0.0343114)
(-0.136309 -0.0117082 -0.0613202)
(-0.135993 -0.00832362 -0.190189)
(-0.12607 -0.00281658 -0.312357)
(-0.0519498 0.000842769 -0.286024)
(-0.0168997 0.00954599 0.107088)
(-0.052125 0.0111564 0.17428)
(-0.085912 0.00357814 0.176672)
(-0.107061 -0.00874479 0.149721)
(-0.12017 -0.0218166 0.103785)
(-0.129959 -0.0315522 0.0366374)
(-0.138642 -0.0335338 -0.0583549)
(-0.138782 -0.0247045 -0.185423)
(-0.126631 -0.00878543 -0.305197)
(-0.051421 0.00260804 -0.279739)
(-0.0154862 0.0130608 0.104388)
(-0.0458021 0.0149195 0.168063)
(-0.0740691 0.00522172 0.17089)
(-0.0936184 -0.0106765 0.146783)
(-0.109334 -0.0282089 0.104624)
(-0.124862 -0.0425364 0.0413865)
(-0.139737 -0.0475426 -0.0495372)
(-0.143461 -0.0373249 -0.170955)
(-0.128607 -0.0145922 -0.284884)
(-0.0509454 0.00415501 -0.262714)
(-0.0127517 0.0114871 0.0942894)
(-0.0347028 0.0124181 0.145925)
(-0.0527724 0.00474904 0.147275)
(-0.0668671 -0.00775567 0.128286)
(-0.0828298 -0.0222127 0.0957212)
(-0.104041 -0.0354124 0.0454722)
(-0.127945 -0.0422455 -0.0298865)
(-0.140597 -0.0359298 -0.133382)
(-0.127123 -0.0159863 -0.232407)
(-0.0500064 0.00431093 -0.220642)
(-0.0071041 0.00460524 0.0592045)
(-0.0164123 0.00472421 0.0806164)
(-0.0204638 0.0019451 0.0782183)
(-0.0245211 -0.00250627 0.0687608)
(-0.0336504 -0.00779425 0.0552129)
(-0.0508668 -0.012988 0.0340845)
(-0.0743583 -0.0162503 -0.000741351)
(-0.0923564 -0.0146047 -0.0539316)
(-0.0876192 -0.00728845 -0.110309)
(-0.0361804 0.00135609 -0.117162)
(-0.0165332 -0.00630287 0.0818329)
(-0.0283374 -0.00640146 0.0924691)
(-0.0181606 -0.00260255 0.0806931)
(-0.00888564 0.00335047 0.0645388)
(-0.00735028 0.0103342 0.0477809)
(-0.0188468 0.01763 0.025768)
(-0.0455927 0.0232465 -0.0108336)
(-0.0762259 0.0218872 -0.0734825)
(-0.0964653 0.0102973 -0.15279)
(-0.0418322 -0.00606979 -0.195877)
(-0.0256303 -0.014428 0.122524)
(-0.0499845 -0.0151559 0.166826)
(-0.0454673 -0.00558437 0.157855)
(-0.0343543 0.0094218 0.130984)
(-0.0267207 0.026572 0.0962879)
(-0.0292225 0.043068 0.0488289)
(-0.0466221 0.0537569 -0.0232741)
(-0.0682137 0.0475313 -0.136665)
(-0.0950019 0.0190741 -0.274403)
(-0.0358792 -0.0143426 -0.326539)
(-0.0284732 -0.0152114 0.132396)
(-0.0595907 -0.0169737 0.191624)
(-0.0618575 -0.00586165 0.186126)
(-0.0515874 0.0114874 0.156094)
(-0.0389207 0.0304485 0.11446)
(-0.0304924 0.0466658 0.0572022)
(-0.0342173 0.0542338 -0.0267613)
(-0.0438119 0.0435634 -0.156597)
(-0.0747784 0.0139852 -0.314936)
(-0.0275322 -0.0124611 -0.367885)
(-0.02949 -0.0105978 0.134594)
(-0.0639553 -0.0121431 0.198401)
(-0.0697049 -0.00388015 0.193889)
(-0.0592982 0.00882318 0.162741)
(-0.0430348 0.022175 0.119102)
(-0.0280026 0.0326078 0.0593653)
(-0.024794 0.036001 -0.0275557)
(-0.0302387 0.0269685 -0.162826)
(-0.0664523 0.00755635 -0.329141)
(-0.0257726 -0.00735405 -0.38316)
(-0.029803 -0.00372506 0.135)
(-0.0655524 -0.00431018 0.199793)
(-0.0725035 -0.00130903 0.195268)
(-0.0616274 0.00325099 0.163673)
(-0.0434875 0.00792462 0.119654)
(-0.025648 0.011384 0.0596679)
(-0.0201958 0.0122216 -0.0277647)
(-0.0252762 0.00882582 -0.16495)
(-0.0646259 0.00232133 -0.334326)
(-0.0259804 -0.00230992 -0.388802)
(-0.029803 0.00372506 0.135)
(-0.0655524 0.00431018 0.199793)
(-0.0725035 0.00130903 0.195268)
(-0.0616274 -0.00325099 0.163673)
(-0.0434875 -0.00792462 0.119654)
(-0.025648 -0.011384 0.0596679)
(-0.0201958 -0.0122216 -0.0277647)
(-0.0252762 -0.00882582 -0.16495)
(-0.0646259 -0.00232133 -0.334326)
(-0.0259804 0.00230993 -0.388802)
(-0.02949 0.0105979 0.134594)
(-0.0639553 0.0121431 0.198401)
(-0.0697049 0.00388015 0.193889)
(-0.0592982 -0.00882318 0.162741)
(-0.0430348 -0.022175 0.119102)
(-0.0280026 -0.0326078 0.0593653)
(-0.024794 -0.036001 -0.0275557)
(-0.0302387 -0.0269685 -0.162826)
(-0.0664523 -0.00755634 -0.329141)
(-0.0257726 0.00735405 -0.38316)
(-0.0284732 0.0152114 0.132396)
(-0.0595907 0.0169737 0.191624)
(-0.0618575 0.00586165 0.186126)
(-0.0515874 -0.0114874 0.156094)
(-0.0389207 -0.0304485 0.11446)
(-0.0304924 -0.0466658 0.0572022)
(-0.0342173 -0.0542338 -0.0267613)
(-0.0438119 -0.0435634 -0.156597)
(-0.0747784 -0.0139852 -0.314936)
(-0.0275322 0.0124611 -0.367885)
(-0.0256303 0.014428 0.122524)
(-0.0499845 0.0151559 0.166826)
(-0.0454673 0.00558437 0.157855)
(-0.0343543 -0.0094218 0.130984)
(-0.0267207 -0.026572 0.0962879)
(-0.0292225 -0.043068 0.0488289)
(-0.0466221 -0.0537569 -0.0232741)
(-0.0682137 -0.0475313 -0.136665)
(-0.0950019 -0.0190741 -0.274403)
(-0.0358792 0.0143426 -0.326539)
(-0.0165332 0.00630287 0.0818329)
(-0.0283374 0.00640146 0.0924691)
(-0.0181606 0.00260255 0.0806931)
(-0.00888565 -0.00335047 0.0645388)
(-0.00735028 -0.0103342 0.0477809)
(-0.0188468 -0.01763 0.025768)
(-0.0455927 -0.0232465 -0.0108336)
(-0.0762259 -0.0218872 -0.0734825)
(-0.0964653 -0.0102973 -0.15279)
(-0.0418322 0.00606979 -0.195877)
(-0.0238459 -0.0112248 0.150233)
(-0.0203468 -0.0120594 0.0981593)
(0.0279615 -0.00746042 0.062879)
(0.0622111 -0.000900607 0.0415359)
(0.0829954 0.00650251 0.0251132)
(0.0852568 0.0143965 0.0072978)
(0.0630183 0.0216387 -0.0212787)
(0.0255195 0.0208642 -0.0788013)
(-0.0421319 0.00515355 -0.174005)
(-0.00681547 -0.0178678 -0.259712)
(-0.0425439 -0.0230186 0.209705)
(-0.0417694 -0.0261238 0.169654)
(0.0229588 -0.0167713 0.128003)
(0.0787673 -0.0025498 0.0959044)
(0.123459 0.0137566 0.0663155)
(0.151435 0.0303307 0.0325333)
(0.14969 0.0446531 -0.0169048)
(0.130649 0.0427431 -0.107341)
(0.0399148 0.0101442 -0.256333)
(0.0436717 -0.031911 -0.369535)
(-0.0478434 -0.0209255 0.219909)
(-0.051408 -0.0259453 0.190086)
(0.0123612 -0.0172346 0.151494)
(0.0727911 -0.0029352 0.11816)
(0.126407 0.0134423 0.0847739)
(0.168331 0.0289675 0.0451115)
(0.180802 0.0402638 -0.011322)
(0.17617 0.0356079 -0.11047)
(0.0806471 0.00591056 -0.275205)
(0.0631006 -0.022652 -0.395171)
(-0.0488746 -0.0133973 0.220924)
(-0.054227 -0.0172623 0.194225)
(0.00824898 -0.0113829 0.157229)
(0.0698565 -0.00172069 0.124172)
(0.126506 0.00907308 0.0901693)
(0.173635 0.0188301 0.0490236)
(0.190992 0.0250089 -0.00965092)
(0.190498 0.0209789 -0.111724)
(0.0906818 0.00345411 -0.281876)
(0.0661574 -0.011868 -0.403864)
(-0.0489245 -0.00452184 0.220722)
(-0.0546744 -0.00591402 0.19457)
(0.0075047 -0.00385536 0.157933)
(0.0696505 -0.000510995 0.125024)
(0.127338 0.0031514 0.0910735)
(0.176032 0.00636595 0.0497952)
(0.194509 0.00824479 -0.00945649)
(0.194261 0.00675876 -0.112664)
(0.091809 0.0011622 -0.284658)
(0.065783 -0.00352496 -0.407033)
(-0.0489245 0.00452184 0.220722)
(-0.0546744 0.00591403 0.19457)
(0.0075047 0.00385536 0.157933)
(0.0696505 0.000510996 0.125024)
(0.127338 -0.0031514 0.0910735)
(0.176032 -0.00636595 0.0497952)