/*--------------------------------*- C++ -*----------------------------------*\
  =========                 |
  \\      /  F ield         | OpenFOAM: The Open Source CFD Toolbox
   \\    /   O peration     | Website:  https://openfoam.org
    \\  /    A nd           | Version:  9
     \\/     M anipulation  |
\*---------------------------------------------------------------------------*/
FoamFile
{
    format      ascii;
    class       surfaceScalarField;
    location    "0.92";
    object      phi;
}
// * * * * * * * * * * * * * * * * * * * * * * * * * * * * * * * * * * * * * //

dimensions      [0 3 -1 0 0 0 0];

internalField   nonuniform List<scalar> 
2700
(
-5.64143e-08
-1.10704e-07
1.67003e-07
-2.99173e-07
-1.25228e-07
3.67987e-07
-6.24451e-07
-1.25891e-07
4.51169e-07
-9.47056e-07
-1.47104e-07
4.69709e-07
-1.1762e-06
-2.00122e-07
4.29262e-07
-1.21119e-06
-2.79165e-07
3.14163e-07
-9.84864e-07
-3.55713e-07
1.29383e-07
-5.41373e-07
-3.79025e-07
-6.44652e-08
-1.02725e-07
-3.02207e-07
-1.36441e-07
-1.00087e-07
-2.63822e-09
-1.55996e-07
-2.41909e-07
2.872e-07
-6.86452e-07
-3.23217e-07
7.28446e-07
-1.36166e-06
-3.44805e-07
8.94126e-07
-1.99675e-06
-3.85216e-07
8.73198e-07
-2.4158e-06
-4.68687e-07
6.87616e-07
-2.44017e-06
-5.83529e-07
3.28736e-07
-1.96068e-06
-6.81313e-07
-1.5389e-07
-1.08246e-06
-6.87129e-07
-5.70124e-07
-2.33339e-07
-5.43151e-07
-6.08172e-07
-2.20097e-07
-1.13329e-07
-2.37031e-07
-2.6507e-07
2.60192e-07
-9.67302e-07
-3.78403e-07
7.85457e-07
-1.87008e-06
-4.11958e-07
9.69929e-07
-2.69296e-06
-4.53307e-07
8.90974e-07
-3.20516e-06
-5.29639e-07
5.73152e-07
-3.18468e-06
-6.30403e-07
2.63897e-08
-2.50333e-06
-7.02146e-07
-6.60515e-07
-1.32847e-06
-6.876e-07
-1.17438e-06
-2.48638e-07
-5.4203e-07
-1.08096e-06
-2.38589e-07
-2.30147e-07
-2.93784e-07
-1.6846e-07
1.97174e-07
-1.15813e-06
-2.47391e-07
7.33334e-07
-2.20876e-06
-2.71459e-07
9.10135e-07
-3.1465e-06
-2.96573e-07
7.80998e-07
-3.70514e-06
-3.39754e-07
3.68765e-07
-3.62573e-06
-3.93969e-07
-3.15852e-07
-2.79356e-06
-4.3029e-07
-1.10402e-06
-1.42256e-06
-4.15186e-07
-1.64342e-06
-2.19502e-07
-3.27209e-07
-1.41788e-06
-1.49769e-07
-3.08321e-07
-3.2358e-07
-2.71063e-12
1.55123e-07
-1.25588e-06
-2.32436e-12
6.84916e-07
-2.3799e-06
-1.85248e-12
8.52562e-07
-3.3718e-06
-1.36326e-12
6.95328e-07
-3.94679e-06
-1.00747e-12
2.35234e-07
-3.83243e-06
-7.29332e-13
-5.08327e-07
-2.91801e-06
-5.26604e-13
-1.34471e-06
-1.4497e-06
-3.86728e-13
-1.8835e-06
-1.94733e-07
-3.10015e-13
-1.58217e-06
-2.24058e-13
-3.44502e-07
-3.2358e-07
1.68454e-07
1.55123e-07
-1.25588e-06
2.47386e-07
6.84916e-07
-2.3799e-06
2.71455e-07
8.52563e-07
-3.3718e-06
2.96571e-07
6.95328e-07
-3.94679e-06
3.39752e-07
2.35235e-07
-3.83243e-06
3.93968e-07
-5.08326e-07
-2.91801e-06
4.30289e-07
-1.34471e-06
-1.4497e-06
4.15186e-07
-1.8835e-06
-1.94733e-07
3.27208e-07
-1.58217e-06
1.49769e-07
-3.44502e-07
-2.93782e-07
2.6506e-07
1.97176e-07
-1.15813e-06
3.78397e-07
7.33335e-07
-2.20876e-06
4.11954e-07
9.10135e-07
-3.14649e-06
4.53304e-07
7.80998e-07
-3.70514e-06
5.29637e-07
3.68766e-07
-3.62573e-06
6.30401e-07
-3.15852e-07
-2.79356e-06
7.02146e-07
-1.10402e-06
-1.42256e-06
6.876e-07
-1.64342e-06
-2.19501e-07
5.42029e-07
-1.41788e-06
2.38588e-07
-3.08321e-07
-2.37026e-07
2.4189e-07
2.60196e-07
-9.67298e-07
3.23209e-07
7.85459e-07
-1.87007e-06
3.44801e-07
9.6993e-07
-2.69296e-06
3.85214e-07
8.90975e-07
-3.20516e-06
4.68685e-07
5.73153e-07
-3.18468e-06
5.83529e-07
2.63901e-08
-2.50333e-06
6.81312e-07
-6.60515e-07
-1.32847e-06
6.87129e-07
-1.17438e-06
-2.48638e-07
5.43151e-07
-1.08096e-06
2.20097e-07
-2.30147e-07
-1.55984e-07
1.10662e-07
2.87212e-07
-6.86444e-07
1.25218e-07
7.28451e-07
-1.36166e-06
1.25888e-07
8.94128e-07
-1.99675e-06
1.47102e-07
8.73199e-07
-2.4158e-06
2.00121e-07
6.87616e-07
-2.44017e-06
2.79164e-07
3.28736e-07
-1.96068e-06
3.55713e-07
-1.5389e-07
-1.08245e-06
3.79025e-07
-5.70124e-07
-2.33339e-07
3.02207e-07
-6.08172e-07
1.00087e-07
-1.13329e-07
-5.63789e-08
1.67041e-07
-2.99158e-07
3.67997e-07
-6.24444e-07
4.51173e-07
-9.47052e-07
4.69711e-07
-1.17619e-06
4.29262e-07
-1.21119e-06
3.14163e-07
-9.84863e-07
1.29384e-07
-5.41373e-07
-6.44651e-08
-1.02725e-07
-1.36441e-07
-2.63821e-09
-2.1702e-07
-2.89087e-07
6.7311e-07
-7.17024e-07
-3.88636e-07
1.25663e-06
-1.32356e-06
-4.03458e-07
1.46117e-06
-1.9047e-06
-4.08817e-07
1.45966e-06
-2.31233e-06
-4.37495e-07
1.27439e-06
-2.38211e-06
-4.92633e-07
8.76576e-07
-1.99734e-06
-5.45676e-07
2.90291e-07
-1.20091e-06
-5.37536e-07
-3.23362e-07
-3.31328e-07
-3.99365e-07
-6.06655e-07
-8.74082e-08
-2.46558e-07
-6.01661e-07
-5.31334e-07
1.13111e-06
-1.8286e-06
-7.73682e-07
2.34043e-06
-3.23959e-06
-8.17435e-07
2.71909e-06
-4.50129e-06
-8.26377e-07
2.55246e-06
-5.29642e-06
-8.66042e-07
1.91129e-06
-5.32432e-06
-9.39034e-07
8.03037e-07
-4.40406e-06
-1.00068e-06
-6.19143e-07
-2.67203e-06
-9.56753e-07
-1.88294e-06
-8.22838e-07
-7.22769e-07
-2.13396e-06
-2.37183e-07
-7.86392e-07
-9.03029e-07
-5.43288e-07
1.17517e-06
-2.66497e-06
-8.24349e-07
2.59807e-06
-4.62283e-06
-8.78667e-07
2.98902e-06
-6.29497e-06
-8.85244e-07
2.62198e-06
-7.26035e-06
-9.14641e-07
1.58713e-06
-7.17097e-06
-9.69848e-07
-3.21784e-08
-5.82184e-06
-1.00009e-06
-2.01023e-06
-3.46426e-06
-9.37496e-07
-3.55122e-06
-1.0391e-06
-7.16349e-07
-3.51254e-06
-2.76299e-07
-1.23014e-06
-1.10654e-06
-3.34924e-07
1.09535e-06
-3.22829e-06
-5.1826e-07
2.549e-06
-5.53514e-06
-5.54431e-07
2.89275e-06
-7.44208e-06
-5.56641e-07
2.35934e-06
-8.47089e-06
-5.69187e-07
1.05212e-06
-8.24697e-06
-5.94367e-07
-9.15256e-07
-6.5913e-06
-6.01212e-07
-3.15856e-06
-3.84172e-06
-5.57301e-07
-4.7732e-06
-1.10411e-06
-4.29246e-07
-4.44259e-06
-1.78234e-07
-1.51049e-06
-1.20899e-06
-2.41551e-12
1.02919e-06
-3.51194e-06
-2.25616e-12
2.46961e-06
-5.98873e-06
-1.83375e-12
2.77492e-06
-8.0004e-06
-1.35398e-12
2.15036e-06
-9.04457e-06
-9.87936e-13
7.10215e-07
-8.73585e-06
-7.12865e-13
-1.41141e-06
-6.92132e-06
-5.17679e-13
-3.76046e-06
-3.98557e-06
-3.95353e-13
-5.37655e-06
-1.11494e-06
-3.34264e-13
-4.88205e-06
-2.49285e-13
-1.63768e-06
-1.20899e-06
3.34919e-07
1.02919e-06
-3.51194e-06
5.18255e-07
2.46961e-06
-5.98873e-06
5.54427e-07
2.77492e-06
-8.0004e-06
5.56638e-07
2.15036e-06
-9.04457e-06
5.69185e-07
7.10215e-07
-8.73585e-06
5.94366e-07
-1.41141e-06
-6.92132e-06
6.01211e-07
-3.76046e-06
-3.98557e-06
5.573e-07
-5.37655e-06
-1.11494e-06
4.29246e-07
-4.88205e-06
1.78234e-07
-1.63768e-06
-1.10654e-06
5.43281e-07
1.09535e-06
-3.22829e-06
8.24343e-07
2.549e-06
-5.53514e-06
8.78663e-07
2.89275e-06
-7.44208e-06
8.85241e-07
2.35934e-06
-8.47089e-06
9.14639e-07
1.05212e-06
-8.24697e-06
9.69847e-07
-9.15256e-07
-6.5913e-06
1.00009e-06
-3.15856e-06
-3.84172e-06
9.37495e-07
-4.7732e-06
-1.10411e-06
7.16348e-07
-4.44259e-06
2.76298e-07
-1.51049e-06
-9.03026e-07
5.31325e-07
1.17518e-06
-2.66497e-06
7.73676e-07
2.59807e-06
-4.62283e-06
8.17431e-07
2.98902e-06
-6.29497e-06
8.26375e-07
2.62198e-06
-7.26035e-06
8.6604e-07
1.58713e-06
-7.17097e-06
9.39033e-07
-3.21779e-08
-5.82184e-06
1.00068e-06
-2.01023e-06
-3.46426e-06
9.56752e-07
-3.55122e-06
-1.0391e-06
7.22768e-07
-3.51254e-06
2.37183e-07
-1.23014e-06
-6.01655e-07
2.89076e-07
1.13112e-06
-1.8286e-06
3.8863e-07
2.34044e-06
-3.23958e-06
4.03455e-07
2.71909e-06
-4.50129e-06
4.08815e-07
2.55246e-06
-5.29642e-06
4.37494e-07
1.91129e-06
-5.32432e-06
4.92632e-07
8.03038e-07
-4.40406e-06
5.45676e-07
-6.19142e-07
-2.67203e-06
5.37536e-07
-1.88294e-06
-8.22838e-07
3.99365e-07
-2.13396e-06
8.74079e-08
-7.86392e-07
-2.17009e-07
6.73125e-07
-7.17016e-07
1.25663e-06
-1.32356e-06
1.46117e-06
-1.90469e-06
1.45966e-06
-2.31232e-06
1.27439e-06
-2.38211e-06
8.76577e-07
-1.99734e-06
2.90291e-07
-1.20091e-06
-3.23361e-07
-3.31327e-07
-6.06655e-07
-2.46558e-07
-3.29925e-07
-4.39612e-07
1.44265e-06
-9.99744e-07
-5.92809e-07
2.51925e-06
-1.78608e-06
-5.91428e-07
2.83893e-06
-2.55625e-06
-5.42429e-07
2.77226e-06
-3.15347e-06
-5.04371e-07
2.37597e-06
-3.37026e-06
-5.03045e-07
1.59641e-06
-3.00154e-06
-5.26352e-07
4.47922e-07
-1.98609e-06
-5.23642e-07
-8.15163e-07
-6.74941e-07
-3.95552e-07
-1.52226e-06
-4.04799e-08
-8.81019e-07
-9.59585e-07
-7.69389e-07
2.42047e-06
-2.71049e-06
-1.10952e-06
4.60805e-06
-4.64728e-06
-1.11205e-06
5.1765e-06
-6.37999e-06
-1.00735e-06
4.75009e-06
-7.55013e-06
-9.09295e-07
3.48635e-06
-7.78078e-06
-8.59932e-07
1.39057e-06
-6.74963e-06
-8.4562e-07
-1.33102e-06
-4.43775e-06
-8.064e-07
-3.91206e-06
-1.59062e-06
-6.24671e-07
-4.75197e-06
-1.5562e-07
-2.26187e-06
-1.46613e-06
-7.63774e-07
2.63569e-06
-4.03995e-06
-1.14026e-06
5.20263e-06
-6.77309e-06
-1.14362e-06
5.75373e-06
-9.07496e-06
-1.02284e-06
4.93935e-06
-1.04713e-05
-8.98198e-07
2.97236e-06
-1.05387e-05
-8.11396e-07
-1.32777e-08
-8.9499e-06
-7.53726e-07
-3.69095e-06
-5.7779e-06
-6.98548e-07
-6.83107e-06
-2.0351e-06
-5.56952e-07
-7.32305e-06
-1.90802e-07
-3.23005e-06
-1.81107e-06
-4.62889e-07
2.60554e-06
-4.93705e-06
-7.02628e-07
5.23734e-06
-8.16675e-06
-7.03818e-07
5.68265e-06
-1.07701e-05
-6.23083e-07
4.56294e-06
-1.22189e-05
-5.3553e-07
2.13821e-06
-1.20876e-05
-4.66192e-07
-1.39167e-06
-1.01041e-05
-4.17447e-07
-5.4784e-06
-6.4203e-06
-3.81195e-07
-8.77434e-06
-2.20976e-06
-3.11702e-07
-8.89837e-06
-1.23635e-07
-3.78742e-06
-1.98415e-06
-1.89845e-12
2.55045e-06
-5.38509e-06
-1.81235e-12
5.16793e-06
-8.84978e-06
-1.51486e-12
5.53579e-06
-1.15768e-05
-1.14797e-12
4.25433e-06
-1.30176e-05
-8.70354e-13
1.61543e-06
-1.27635e-05
-6.63078e-13
-2.13167e-06
-1.05802e-05
-5.00065e-13
-6.36119e-06
-6.66646e-06
-3.87144e-13
-9.67149e-06
-2.26476e-06
-3.15557e-13
-9.59545e-06
-2.33617e-13
-4.02608e-06
-1.98414e-06
4.62886e-07
2.55045e-06
-5.38509e-06
7.02624e-07
5.16793e-06
-8.84978e-06
7.03815e-07
5.53579e-06
-1.15768e-05
6.23081e-07
4.25433e-06
-1.30176e-05
5.35529e-07
1.61543e-06
-1.27635e-05
4.6619e-07
-2.13167e-06
-1.05802e-05
4.17447e-07
-6.36119e-06
-6.66646e-06
3.81195e-07
-9.67149e-06
-2.26476e-06
3.11701e-07
-9.59545e-06
1.23635e-07
-4.02608e-06
-1.81107e-06
7.63769e-07
2.60554e-06
-4.93705e-06
1.14026e-06
5.23734e-06
-8.16674e-06
1.14361e-06
5.68265e-06
-1.07701e-05
1.02284e-06
4.56294e-06
-1.22189e-05
8.98197e-07
2.13821e-06
-1.20876e-05
8.11395e-07
-1.39167e-06
-1.01041e-05
7.53725e-07
-5.4784e-06
-6.4203e-06
6.98547e-07
-8.77434e-06
-2.20976e-06
5.56951e-07
-8.89837e-06
1.90802e-07
-3.78742e-06
-1.46613e-06
7.69384e-07
2.63569e-06
-4.03994e-06
1.10951e-06
5.20263e-06
-6.77309e-06
1.11205e-06
5.75373e-06
-9.07496e-06
1.00735e-06
4.93935e-06
-1.04713e-05
9.09294e-07
2.97236e-06
-1.05387e-05
8.59931e-07
-1.32771e-08
-8.9499e-06
8.4562e-07
-3.69095e-06
-5.7779e-06
8.06399e-07
-6.83107e-06
-2.0351e-06
6.24671e-07
-7.32305e-06
1.55619e-07
-3.23005e-06
-9.59582e-07
4.39608e-07
2.42047e-06
-2.71049e-06
5.92806e-07
4.60805e-06
-4.64728e-06
5.91426e-07
5.1765e-06
-6.37999e-06
5.42428e-07
4.75009e-06
-7.55013e-06
5.0437e-07
3.48635e-06
-7.78078e-06
5.03045e-07
1.39057e-06
-6.74963e-06
5.26351e-07
-1.33102e-06
-4.43775e-06
5.23642e-07
-3.91206e-06
-1.59062e-06
3.95551e-07
-4.75197e-06
4.04798e-08
-2.26187e-06
-3.29922e-07
1.44265e-06
-9.99741e-07
2.51926e-06
-1.78608e-06
2.83894e-06
-2.55625e-06
2.77226e-06
-3.15347e-06
2.37597e-06
-3.37026e-06
1.59641e-06
-3.00154e-06
4.47923e-07
-1.98609e-06
-8.15163e-07
-6.74941e-07
-1.52226e-06
-8.81018e-07
-4.1111e-07
-5.68983e-07
2.42274e-06
-1.19213e-06
-7.43486e-07
4.04376e-06
-2.10306e-06
-6.84399e-07
4.43426e-06
-3.05244e-06
-5.29736e-07
4.25138e-06
-3.91373e-06
-3.71513e-07
3.60878e-06
-4.44598e-06
-2.70579e-07
2.39924e-06
-4.30459e-06
-2.51556e-07
5.58087e-07
-3.19052e-06
-3.05599e-07
-1.62364e-06
-1.31361e-06
-2.94393e-07
-3.10477e-06
1.33142e-09
-2.19596e-06
-1.235e-06
-9.69912e-07
4.0564e-06
-3.37301e-06
-1.3464e-06
7.34897e-06
-5.70409e-06
-1.22698e-06
8.05016e-06
-7.86352e-06
-9.04493e-07
7.28428e-06
-9.52446e-06
-5.55166e-07
5.33094e-06
-1.02531e-05
-2.94087e-07
2.14275e-06
-9.50581e-06
-1.81541e-07
-2.14836e-06
-6.86976e-06
-2.40283e-07
-6.61342e-06
-2.85285e-06
-3.00496e-07
-8.76278e-06
-4.71669e-08
-5.06622e-06
-1.90405e-06
-9.44794e-07
4.51462e-06
-5.088e-06
-1.35072e-06
8.3909e-06
-8.39531e-06
-1.21674e-06
9.05081e-06
-1.12295e-05
-8.56588e-07
7.72565e-06
-1.31615e-05
-4.56421e-07
4.80561e-06
-1.37102e-05
-1.34222e-07
3.75542e-07
-1.2369e-05
1.65325e-08
-5.23019e-06
-8.75602e-06
-4.01415e-08
-1.06442e-05
-3.58311e-06
-1.64255e-07
-1.26322e-05
-6.43354e-08
-6.796e-06
-2.35748e-06
-5.65616e-07
4.58384e-06
-6.23233e-06
-8.19582e-07
8.58105e-06
-1.01218e-05
-7.31182e-07
9.08659e-06
-1.32688e-05
-4.97195e-07
7.3505e-06
-1.52076e-05
-2.35342e-07
3.85598e-06
-1.55166e-05
-2.04906e-08
-1.19645e-06
-1.37435e-05
7.8586e-08
-7.31352e-06
-9.59642e-06
4.01354e-08
-1.30017e-05
-3.87815e-06
-5.69334e-08
-1.4724e-05
-4.06989e-08
-7.68921e-06
-2.58239e-06
-1.4087e-12
4.56723e-06
-6.79429e-06
-1.36681e-12
8.56025e-06
-1.09465e-05
-1.15572e-12
8.95684e-06
-1.42019e-05
-8.96035e-13
7.0125e-06
-1.60927e-05
-7.07939e-13
3.27093e-06
-1.62446e-05
-5.65941e-13
-2.0003e-06
-1.42654e-05
-4.41033e-13
-8.26179e-06
-9.90097e-06
-3.51026e-13
-1.39958e-05
-3.97937e-06
-2.80597e-13
-1.5574e-05
-2.0879e-13
-8.04615e-06
-2.58239e-06
5.65613e-07
4.56723e-06
-6.79429e-06
8.19579e-07
8.56025e-06
-1.09465e-05
7.3118e-07
8.95684e-06
-1.42019e-05
4.97193e-07
7.0125e-06
-1.60927e-05
2.35341e-07
3.27093e-06
-1.62446e-05
2.04895e-08
-2.0003e-06
-1.42654e-05
-7.85868e-08
-8.26179e-06
-9.90097e-06
-4.0136e-08
-1.39958e-05
-3.97937e-06
5.69329e-08
-1.5574e-05
4.06985e-08
-8.04615e-06
-2.35748e-06
9.44791e-07
4.58385e-06
-6.23233e-06
1.35072e-06
8.58105e-06
-1.01218e-05
1.21674e-06
9.08659e-06
-1.32688e-05
8.56586e-07
7.3505e-06
-1.52076e-05
4.5642e-07
3.85598e-06
-1.55166e-05
1.34222e-07
-1.19645e-06
-1.37435e-05
-1.65331e-08
-7.31352e-06
-9.59642e-06
4.0141e-08
-1.30017e-05
-3.87815e-06
1.64255e-07
-1.4724e-05
6.43351e-08
-7.68921e-06
-1.90405e-06
9.6991e-07
4.51462e-06
-5.088e-06
1.3464e-06
8.3909e-06
-8.39531e-06
1.22698e-06
9.05081e-06
-1.12295e-05
9.04491e-07
7.72565e-06
-1.31615e-05
5.55165e-07
4.80561e-06
-1.37102e-05
2.94086e-07
3.75542e-07
-1.2369e-05
1.81541e-07
-5.23019e-06
-8.75602e-06
2.40282e-07
-1.06442e-05
-3.58311e-06
3.00496e-07
-1.26322e-05
4.71667e-08
-6.796e-06
-1.235e-06
5.68981e-07
4.0564e-06
-3.37301e-06
7.43484e-07
7.34897e-06
-5.70409e-06
6.84398e-07
8.05016e-06
-7.86352e-06
5.29735e-07
7.28429e-06
-9.52446e-06
3.71513e-07
5.33094e-06
-1.02531e-05
2.70578e-07
2.14275e-06
-9.50581e-06
2.51555e-07
-2.14836e-06
-6.86976e-06
3.05599e-07
-6.61342e-06
-2.85285e-06
2.94392e-07
-8.76278e-06
-1.33152e-09
-5.06622e-06
-4.11108e-07
2.42274e-06
-1.19213e-06
4.04376e-06
-2.10305e-06
4.43426e-06
-3.05244e-06
4.25138e-06
-3.91373e-06
3.60878e-06
-4.44598e-06
2.39924e-06
-4.30459e-06
5.58088e-07
-3.19052e-06
-1.62364e-06
-1.31361e-06
-3.10477e-06
-2.19596e-06
-4.99753e-07
-6.65983e-07
3.58848e-06
-1.33332e-06
-8.24997e-07
5.70232e-06
-2.28703e-06
-6.57108e-07
6.04508e-06
-3.36927e-06
-3.30675e-07
5.66429e-06
-4.54485e-06
3.89869e-08
4.74537e-06
-5.57551e-06
3.19388e-07
3.11052e-06
-5.94843e-06
4.16643e-07
5.14361e-07
-4.97937e-06
2.56478e-07
-2.84917e-06
-2.46724e-06
7.94092e-09
-5.62484e-06
1.10971e-08
-4.6743e-06
-1.46424e-06
-1.1111e-06
5.96575e-06
-3.82988e-06
-1.45769e-06
1.03473e-05
-6.36324e-06
-1.12667e-06
1.10531e-05
-8.82658e-06
-4.68851e-07
9.8858e-06
-1.10105e-05
2.61604e-07
7.29225e-06
-1.24927e-05
8.43233e-07
3.10106e-06
-1.24905e-05
1.07346e-06
-2.80729e-06
-1.00146e-05
8.02862e-07
-9.6358e-06
-4.86161e-06
2.52734e-07
-1.41605e-05
1.45629e-08
-9.9313e-06
-2.22757e-06
-1.06453e-06
6.69562e-06
-5.76362e-06
-1.43314e-06
1.19024e-05
-9.35186e-06
-1.07471e-06
1.25871e-05
-1.25046e-05
-3.6548e-07
1.0775e-05
-1.4931e-05
4.13436e-07
7.08022e-06
-1.61991e-05
1.02393e-06
1.46297e-06
-1.5608e-05
1.25351e-06
-6.00138e-06
-1.22043e-05
9.59191e-07
-1.42042e-05
-5.85366e-06
3.65932e-07
-1.90961e-05
2.11349e-08
-1.26562e-05
-2.73242e-06
-6.30174e-07
6.88191e-06
-7.01766e-06
-8.57612e-07
1.22908e-05
-1.11925e-05
-6.28259e-07
1.2815e-05
-1.45965e-05
-1.78899e-07
1.0568e-05
-1.69394e-05
3.09414e-07
6.30286e-06
-1.78705e-05
6.87575e-07
7.10167e-08
-1.68615e-05
8.09138e-07
-7.87817e-06
-1.3029e-05
6.1314e-07
-1.64881e-05
-6.22436e-06
2.43759e-07
-2.14064e-05
1.64613e-08
-1.39089e-05
-2.97686e-06
-1.02454e-12
6.91391e-06
-7.61586e-06
-1.0179e-12
1.23416e-05
-1.20364e-05
-8.63845e-13
1.27492e-05
-1.54954e-05
-6.99798e-13
1.02925e-05
-1.77223e-05
-5.93723e-13
5.8073e-06
-1.84594e-05
-5.13204e-13
-5.75662e-07
-1.7262e-05
-4.1905e-13
-8.65007e-06
-1.32918e-05
-3.17428e-13
-1.73528e-05
-6.35239e-06
-2.30845e-13
-2.22696e-05
-1.67092e-13
-1.43821e-05
-2.97686e-06
6.30172e-07
6.91391e-06
-7.61586e-06
8.5761e-07
1.23416e-05
-1.20364e-05
6.28257e-07
1.27492e-05
-1.54954e-05
1.78898e-07
1.02925e-05
-1.77223e-05
-3.09415e-07
5.8073e-06
-1.84594e-05
-6.87576e-07
-5.75662e-07
-1.7262e-05
-8.09139e-07
-8.65007e-06
-1.32918e-05
-6.1314e-07
-1.73528e-05
-6.35239e-06
-2.43759e-07
-2.22696e-05
-1.64617e-08
-1.43821e-05
-2.73242e-06
1.06452e-06
6.88191e-06
-7.01766e-06
1.43314e-06
1.22908e-05
-1.11925e-05
1.07471e-06
1.2815e-05
-1.45965e-05
3.65479e-07
1.0568e-05
-1.69394e-05
-4.13437e-07
6.30286e-06
-1.78705e-05
-1.02393e-06
7.1017e-08
-1.68615e-05
-1.25351e-06
-7.87817e-06
-1.3029e-05
-9.59191e-07
-1.64881e-05
-6.22436e-06
-3.65933e-07
-2.14064e-05
-2.11351e-08
-1.39089e-05
-2.22757e-06
1.1111e-06
6.69562e-06
-5.76362e-06
1.45769e-06
1.19024e-05
-9.35186e-06
1.12667e-06
1.25871e-05
-1.25046e-05
4.6885e-07
1.0775e-05
-1.4931e-05
-2.61605e-07
7.08022e-06
-1.61991e-05
-8.43234e-07
1.46297e-06
-1.5608e-05
-1.07346e-06
-6.00138e-06
-1.22043e-05
-8.02862e-07
-1.42042e-05
-5.85366e-06
-2.52735e-07
-1.90961e-05
-1.45631e-08
-1.26562e-05
-1.46424e-06
6.65982e-07
5.96576e-06
-3.82988e-06
8.24996e-07
1.03473e-05
-6.36323e-06
6.57108e-07
1.10531e-05
-8.82658e-06
3.30674e-07
9.88581e-06
-1.10105e-05
-3.89874e-08
7.29225e-06
-1.24927e-05
-3.19388e-07
3.10106e-06
-1.24905e-05
-4.16643e-07
-2.80729e-06
-1.00146e-05
-2.56478e-07
-9.6358e-06
-4.86161e-06
-7.94128e-09
-1.41605e-05
-1.10972e-08
-9.9313e-06
-4.99752e-07
3.58848e-06
-1.33331e-06
5.70232e-06
-2.28703e-06
6.04508e-06
-3.36927e-06
5.66429e-06
-4.54485e-06
4.74537e-06
-5.57551e-06
3.11052e-06
-5.94843e-06
5.14361e-07
-4.97937e-06
-2.84917e-06
-2.46724e-06
-5.62484e-06
-4.6743e-06
-6.87961e-07
-7.34424e-07
5.01086e-06
-1.49312e-06
-8.34877e-07
7.34235e-06
-2.3224e-06
-5.03402e-07
7.37777e-06
-3.38108e-06
7.11715e-08
6.6518e-06
-4.79413e-06
7.22232e-07
5.43619e-06
-6.42261e-06
1.28811e-06
3.45089e-06
-7.62971e-06
1.54434e-06
1.77123e-07
-7.25463e-06
1.23703e-06
-4.46129e-06
-4.29328e-06
4.96057e-07
-9.08225e-06
-6.48136e-08
-8.90276e-06
-1.73529e-06
-1.19304e-06
8.15966e-06
-4.1055e-06
-1.44611e-06
1.33287e-05
-6.47224e-06
-8.27183e-07
1.37436e-05
-8.85562e-06
2.55187e-07
1.20852e-05
-1.12895e-05
1.46e-06
8.98835e-06
-1.34821e-05
2.44831e-06
4.13344e-06
-1.45749e-05
2.82757e-06
-2.99765e-06
-1.30144e-05
2.25041e-06
-1.22097e-05
-7.4284e-06
9.50746e-07
-2.02012e-05
-6.06864e-08
-1.73638e-05
-2.49622e-06
-1.12117e-06
9.11997e-06
-6.02289e-06
-1.3961e-06
1.53791e-05
-9.37364e-06
-7.54158e-07
1.58648e-05
-1.23118e-05
3.59475e-07
1.36089e-05
-1.48013e-05
1.56248e-06
9.46718e-06
-1.66078e-05
2.48884e-06
3.22897e-06
-1.70644e-05
2.75032e-06
-5.46753e-06
-1.478e-05
2.10609e-06
-1.63443e-05
-8.36614e-06
8.68111e-07
-2.54273e-05
-3.26064e-08
-2.10505e-05
-2.97483e-06
-6.55365e-07
9.39094e-06
-7.20587e-06
-8.2466e-07
1.59504e-05
-1.10507e-05
-4.25574e-07
1.63312e-05
-1.40981e-05
2.5947e-07
1.37154e-05
-1.63309e-05
9.79911e-07
9.11816e-06
-1.76825e-05
1.50045e-06
2.41105e-06
-1.77158e-05
1.61086e-06
-6.70539e-06
-1.52023e-05
1.19276e-06
-1.80884e-05
-8.65541e-06
4.7689e-07
-2.75621e-05
-1.08808e-08
-2.2586e-05
-3.1976e-06
-7.37921e-13
9.45614e-06
-7.74621e-06
-7.53007e-13
1.60656e-05
-1.17757e-05
-6.36816e-13
1.63531e-05
-1.47952e-05
-5.50874e-13
1.35715e-05
-1.68341e-05
-5.06597e-13
8.82615e-06
-1.7931e-05
-4.45591e-13
2.02165e-06
-1.78135e-05
-3.34381e-13
-7.15666e-06
-1.52866e-05
-2.1914e-13
-1.8687e-05
-8.76025e-06
-1.38753e-13
-2.83191e-05
-1.03542e-13
-2.31532e-05
-3.1976e-06
6.55364e-07
9.45614e-06
-7.74621e-06
8.24658e-07
1.60656e-05
-1.17757e-05
4.25572e-07
1.63531e-05
-1.47952e-05
-2.59471e-07
1.35715e-05
-1.68341e-05
-9.79912e-07
8.82615e-06
-1.7931e-05
-1.50045e-06
2.02165e-06
-1.78135e-05
-1.61086e-06
-7.15666e-06
-1.52866e-05
-1.19276e-06
-1.8687e-05
-8.76025e-06
-4.76891e-07
-2.83191e-05
1.08806e-08
-2.31532e-05
-2.97483e-06
1.12117e-06
9.39094e-06
-7.20587e-06
1.3961e-06
1.59504e-05
-1.10507e-05
7.54157e-07
1.63312e-05
-1.40981e-05
-3.59476e-07
1.37154e-05
-1.63309e-05
-1.56248e-06
9.11816e-06
-1.76825e-05
-2.48884e-06
2.41105e-06
-1.77158e-05
-2.75032e-06
-6.70539e-06
-1.52023e-05
-2.10609e-06
-1.80884e-05
-8.65541e-06
-8.68112e-07
-2.75621e-05
3.26061e-08
-2.2586e-05
-2.49622e-06
1.19304e-06
9.11997e-06
-6.02289e-06
1.4461e-06
1.53791e-05
-9.37364e-06
8.27182e-07
1.58648e-05
-1.23118e-05
-2.55188e-07
1.36089e-05
-1.48013e-05
-1.46e-06
9.46718e-06
-1.66078e-05
-2.44831e-06
3.22897e-06
-1.70644e-05
-2.82757e-06
-5.46753e-06
-1.478e-05
-2.25041e-06
-1.63443e-05
-8.36614e-06
-9.50746e-07
-2.54273e-05
6.06862e-08
-2.10505e-05
-1.73529e-06
7.34423e-07
8.15966e-06
-4.1055e-06
8.34876e-07
1.33287e-05
-6.47224e-06
5.03401e-07
1.37436e-05
-8.85562e-06
-7.1172e-08
1.20852e-05
-1.12895e-05
-7.22233e-07
8.98835e-06
-1.34821e-05
-1.28811e-06
4.13344e-06
-1.45749e-05
-1.54434e-06
-2.99765e-06
-1.30144e-05
-1.23703e-06
-1.22097e-05
-7.4284e-06
-4.96057e-07
-2.02012e-05
6.48136e-08
-1.73638e-05
-6.87961e-07
5.01086e-06
-1.49312e-06
7.34235e-06
-2.3224e-06
7.37777e-06
-3.38108e-06
6.6518e-06
-4.79413e-06
5.43619e-06
-6.42261e-06
3.45089e-06
-7.62971e-06
1.77124e-07
-7.25463e-06
-4.46129e-06
-4.29328e-06
-9.08225e-06
-8.90276e-06
-1.21809e-06
-8.28893e-07
7.05784e-06
-1.811e-06
-8.38219e-07
8.77348e-06
-2.16023e-06
-3.06121e-07
8.03312e-06
-2.80303e-06
5.4563e-07
6.74897e-06
-4.11921e-06
1.52866e-06
5.2237e-06
-6.17528e-06
2.45778e-06
3.04918e-06
-8.42887e-06
2.98558e-06
-5.54855e-07
-9.23728e-06
2.59063e-06
-6.24352e-06
-6.51146e-06
1.19947e-06
-1.30075e-05
-2.98307e-07
-1.51159e-05
-2.35651e-06
-1.27472e-06
1.0962e-05
-4.33665e-06
-1.40787e-06
1.58785e-05
-5.83675e-06
-4.84571e-07
1.54222e-05
-7.31005e-06
1.00118e-06
1.31029e-05
-9.15436e-06
2.64889e-06
9.71244e-06
-1.14117e-05
4.04455e-06
4.80397e-06
-1.34867e-05
4.62704e-06
-2.56406e-06
-1.36427e-05
3.75865e-06
-1.32217e-05
-9.28557e-06
1.56617e-06
-2.4925e-05
-4.2629e-07
-2.65214e-05
-2.99748e-06
-1.15895e-06
1.20017e-05
-5.97228e-06
-1.3248e-06
1.82708e-05
-8.21655e-06
-4.15721e-07
1.80402e-05
-9.93136e-06
1.03158e-06
1.52933e-05
-1.14543e-05
2.56748e-06
1.10715e-05
-1.29539e-05
3.74532e-06
5.02782e-06
-1.41766e-05
4.05901e-06
-3.67682e-06
-1.384e-05
3.08324e-06
-1.60056e-05
-9.45775e-06
1.14821e-06
-2.93915e-05
-3.4837e-07
-3.05861e-05
-3.36484e-06
-6.6446e-07
1.22613e-05
-6.9013e-06
-7.69955e-07
1.8932e-05
-9.47244e-06
-2.22295e-07
1.87089e-05
-1.11171e-05
6.40195e-07
1.57514e-05
-1.22019e-05
1.52429e-06
1.12462e-05
-1.30936e-05
2.15303e-06
4.89501e-06
-1.38546e-05
2.24734e-06
-4.13271e-06
-1.34865e-05
1.62662e-06
-1.69998e-05
-9.41e-06
5.59529e-07
-3.10499e-05
-1.78742e-07
-3.21657e-05
-3.52535e-06
-5.32866e-13
1.2317e-05
-7.29823e-06
-5.53437e-13
1.90685e-05
-9.96889e-06
-4.64327e-13
1.88015e-05
-1.15086e-05
-4.16194e-13
1.57514e-05
-1.23345e-05
-3.81668e-13
1.11764e-05
-1.29493e-05
-3.13886e-13
4.78946e-06
-1.35788e-05
-2.00004e-13
-4.27986e-06
-1.33082e-05
-1.01789e-13
-1.7331e-05
-9.41986e-06
-5.62326e-14
-3.16479e-05
-6.24662e-14
-3.27518e-05
-3.52535e-06
6.64459e-07
1.2317e-05
-7.29823e-06
7.69954e-07
1.90685e-05
-9.96889e-06
2.22294e-07
1.88015e-05
-1.15086e-05
-6.40196e-07
1.57514e-05
-1.23345e-05
-1.52429e-06
1.11764e-05
-1.29493e-05
-2.15303e-06
4.78946e-06
-1.35788e-05
-2.24734e-06
-4.27986e-06
-1.33082e-05
-1.62662e-06
-1.7331e-05
-9.41986e-06
-5.59529e-07
-3.16479e-05
1.78742e-07
-3.27518e-05
-3.36484e-06
1.15895e-06
1.22613e-05
-6.9013e-06
1.3248e-06
1.8932e-05
-9.47244e-06
4.1572e-07
1.87089e-05
-1.11171e-05
-1.03158e-06
1.57514e-05
-1.22019e-05
-2.56748e-06
1.12462e-05
-1.30936e-05
-3.74532e-06
4.89501e-06
-1.38546e-05
-4.05901e-06
-4.13271e-06
-1.34865e-05
-3.08324e-06
-1.69998e-05
-9.41e-06
-1.14821e-06
-3.10499e-05
3.4837e-07
-3.21657e-05
-2.99748e-06
1.27472e-06
1.20017e-05
-5.97228e-06
1.40787e-06
1.82708e-05
-8.21655e-06
4.8457e-07
1.80402e-05
-9.93136e-06
-1.00118e-06
1.52933e-05
-1.14543e-05
-2.64889e-06
1.10715e-05
-1.29539e-05
-4.04455e-06
5.02782e-06
-1.41766e-05
-4.62704e-06
-3.67682e-06
-1.384e-05
-3.75866e-06
-1.60056e-05
-9.45775e-06
-1.56617e-06
-2.93915e-05
4.2629e-07
-3.05861e-05
-2.35651e-06
8.28892e-07
1.0962e-05
-4.33665e-06
8.38218e-07
1.58785e-05
-5.83675e-06
3.06121e-07
1.54222e-05
-7.31005e-06
-5.4563e-07
1.31029e-05
-9.15436e-06
-1.52866e-06
9.71244e-06
-1.14117e-05
-2.45778e-06
4.80397e-06
-1.34867e-05
-2.98558e-06
-2.56406e-06
-1.36427e-05
-2.59063e-06
-1.32217e-05
-9.28557e-06
-1.19947e-06
-2.4925e-05
2.98307e-07
-2.65214e-05
-1.21809e-06
7.05784e-06
-1.811e-06
8.77348e-06
-2.16023e-06
8.03312e-06
-2.80303e-06
6.74897e-06
-4.11921e-06
5.2237e-06
-6.17528e-06
3.04918e-06
-8.42887e-06
-5.54855e-07
-9.23728e-06
-6.24352e-06
-6.51145e-06
-1.30075e-05
-1.51159e-05
-2.46485e-06
-1.08113e-06
1.06038e-05
-2.21071e-06
-1.07272e-06
9.59206e-06
-1.25684e-06
-3.81961e-07
7.46122e-06
-7.06986e-07
6.87406e-07
5.51171e-06
-1.20206e-06
1.9181e-06
3.80067e-06
-3.06846e-06
3.14859e-06
1.767e-06
-6.14354e-06
4.02888e-06
-1.50866e-06
-8.6821e-06
3.68061e-06
-7.38557e-06
-7.6713e-06
1.61584e-06
-1.56342e-05
-1.01844e-06
-2.17688e-05
-3.99762e-06
-1.52813e-06
1.54066e-05
-4.62103e-06
-1.65358e-06
1.70828e-05
-3.81072e-06
-5.75208e-07
1.48051e-05
-2.85134e-06
1.08984e-06
1.17411e-05
-2.59551e-06
2.94427e-06
8.43044e-06
-3.52468e-06
4.59777e-06
4.28396e-06
-5.69762e-06
5.49632e-06
-1.85856e-06
-8.02363e-06
4.59276e-06
-1.18079e-05
-7.43221e-06
1.61282e-06
-2.55134e-05
-1.3891e-06
-3.3583e-05
-4.60223e-06
-1.30612e-06
1.63819e-05
-5.92373e-06
-1.4669e-06
1.94056e-05
-5.44291e-06
-4.6903e-07
1.74532e-05
-4.26411e-06
1.04746e-06
1.41569e-05
-3.20555e-06
2.65176e-06
1.03055e-05
-2.90373e-06
3.94987e-06
5.3739e-06
-3.80789e-06
4.46e-06
-1.73634e-06
-5.72569e-06
3.44904e-06
-1.29441e-05
-5.98384e-06
1.01152e-06
-2.85321e-05
-1.02658e-06
-3.69325e-05
-4.86398e-06
-7.21582e-07
1.65407e-05
-6.54335e-06
-8.22985e-07
1.99674e-05
-6.19714e-06
-2.42157e-07
1.81358e-05
-4.81858e-06
6.27373e-07
1.47929e-05
-3.2475e-06
1.51359e-06
1.08133e-05
-2.27639e-06
2.18053e-06
5.69323e-06
-2.6369e-06
2.37078e-06
-1.68297e-06
-4.60068e-06
1.74193e-06
-1.3329e-05
-5.47284e-06
4.57914e-07
-2.96241e-05
-4.92235e-07
-3.81729e-05
-4.95753e-06
-4.01403e-13
1.6553e-05
-6.76793e-06
-4.12203e-13
2.00559e-05
-6.44343e-06
-3.48142e-13
1.82348e-05
-4.93997e-06
-3.08095e-13
1.48753e-05
-3.13331e-06
-2.61206e-13
1.08833e-05
-1.91561e-06
-1.79331e-13
5.7523e-06
-2.14671e-06
-8.17695e-14
-1.67798e-06
-4.25037e-06
-2.26652e-14
-1.34854e-05
-5.39513e-06
-3.32027e-14
-3.00452e-05
-5.23777e-14
-3.86392e-05
-4.95753e-06
7.21581e-07
1.6553e-05
-6.76793e-06
8.22984e-07
2.00559e-05
-6.44343e-06
2.42157e-07
1.82348e-05
-4.93997e-06
-6.27374e-07
1.48753e-05
-3.13331e-06
-1.51359e-06
1.08833e-05
-1.91561e-06
-2.18053e-06
5.7523e-06
-2.14671e-06
-2.37078e-06
-1.67798e-06
-4.25037e-06
-1.74193e-06
-1.34854e-05
-5.39513e-06
-4.57914e-07
-3.00452e-05
4.92235e-07
-3.86392e-05
-4.86398e-06
1.30612e-06
1.65407e-05
-6.54335e-06
1.4669e-06
1.99674e-05
-6.19714e-06
4.6903e-07
1.81358e-05
-4.81858e-06
-1.04746e-06
1.47929e-05
-3.2475e-06
-2.65176e-06
1.08133e-05
-2.27639e-06
-3.94987e-06
5.69323e-06
-2.6369e-06
-4.46e-06
-1.68297e-06
-4.60068e-06
-3.44904e-06
-1.3329e-05
-5.47284e-06
-1.01152e-06
-2.96241e-05
1.02658e-06
-3.81729e-05
-4.60223e-06
1.52813e-06
1.63819e-05
-5.92373e-06
1.65358e-06
1.94056e-05
-5.44291e-06
5.75208e-07
1.74532e-05
-4.26411e-06
-1.08984e-06
1.41569e-05
-3.20555e-06
-2.94427e-06
1.03055e-05
-2.90373e-06
-4.59777e-06
5.3739e-06
-3.80789e-06
-5.49632e-06
-1.73634e-06
-5.72569e-06
-4.59276e-06
-1.29441e-05
-5.98384e-06
-1.61282e-06
-2.85321e-05
1.3891e-06
-3.69325e-05
-3.99762e-06
1.08113e-06
1.54066e-05
-4.62103e-06
1.07272e-06
1.70828e-05
-3.81072e-06
3.81961e-07
1.48051e-05
-2.85134e-06
-6.87406e-07
1.17411e-05
-2.59551e-06
-1.9181e-06
8.43044e-06
-3.52468e-06
-3.14859e-06
4.28396e-06
-5.69762e-06
-4.02888e-06
-1.85856e-06
-8.02363e-06
-3.68061e-06
-1.18079e-05
-7.43221e-06
-1.61584e-06
-2.55134e-05
1.01844e-06
-3.3583e-05
-2.46485e-06
1.06038e-05
-2.21071e-06
9.59206e-06
-1.25684e-06
7.46122e-06
-7.06985e-07
5.51171e-06
-1.20206e-06
3.80067e-06
-3.06846e-06
1.767e-06
-6.14354e-06
-1.50866e-06
-8.6821e-06
-7.38557e-06
-7.6713e-06
-1.56342e-05
-2.17688e-05
-2.66556e-06
-1.85771e-06
1.51271e-05
5.31838e-07
-1.99149e-06
8.38614e-06
4.57643e-06
-1.19841e-06
4.61503e-06
7.43847e-06
-1.40965e-07
2.79063e-06
8.6195e-06
1.10061e-06
1.51902e-06
7.68247e-06
2.38306e-06
3.20977e-07
4.36577e-06
3.5466e-06
-1.73857e-06
-6.12348e-07
3.44298e-06
-5.85043e-06
-3.46876e-06
8.92815e-07
-1.36706e-05
-2.72846e-06
-2.25091e-05
-4.75621e-06
-2.23289e-06
2.0538e-05
-7.39707e-07
-2.67831e-06
1.37531e-05
5.20046e-06
-1.76355e-06
9.43008e-06
1.03524e-05
-2.86661e-07
6.73488e-06
1.40241e-05
1.37968e-06
4.47969e-06
1.55352e-05
3.00819e-06
2.14769e-06
1.40824e-05
4.26248e-06
-1.12161e-06
9.3463e-06
3.82375e-06
-7.45258e-06
3.10518e-06
6.7812e-07
-1.90576e-05
-2.77347e-06
-3.04328e-05
-5.51504e-06
-1.71038e-06
2.13744e-05
-1.68748e-06
-2.16907e-06
1.50688e-05
4.41319e-06
-1.43329e-06
1.10223e-05
1.02481e-05
-2.25269e-07
8.2606e-06
1.50583e-05
1.11583e-06
5.75906e-06
1.8051e-05
2.35157e-06
3.03785e-06
1.79818e-05
3.18646e-06
-5.91113e-07
1.37527e-05
2.73292e-06
-7.62412e-06
5.7336e-06
4.17881e-07
-2.02527e-05
-1.73984e-06
-3.22325e-05
-5.70857e-06
-8.88689e-07
2.14276e-05
-2.01803e-06
-1.15272e-06
1.52606e-05
4.08678e-06
-7.48911e-07
1.13467e-05
1.0135e-05
-9.99678e-08
8.61942e-06
1.53613e-05
6.08679e-07