/*--------------------------------*- C++ -*----------------------------------*\
  =========                 |
  \\      /  F ield         | OpenFOAM: The Open Source CFD Toolbox
   \\    /   O peration     | Website:  https://openfoam.org
    \\  /    A nd           | Version:  9
     \\/     M anipulation  |
\*---------------------------------------------------------------------------*/
FoamFile
{
    format      ascii;
    class       volVectorField;
    location    "0.84";
    object      U;
}
// * * * * * * * * * * * * * * * * * * * * * * * * * * * * * * * * * * * * * //

dimensions      [0 1 -1 0 0 0 0];

internalField   nonuniform List<vector> 
1000
(
(3.23668e-05 -0.000514455 0.000340469)
(-0.00139637 -0.00048399 0.00107795)
(-0.00457202 -0.000441367 0.00144011)
(-0.00797108 -0.000551531 0.00160027)
(-0.0108908 -0.00086095 0.00157023)
(-0.0123635 -0.00133003 0.00125792)
(-0.011445 -0.00179425 0.000651714)
(-0.00788116 -0.00196159 -1.78118e-05)
(-0.00262553 -0.00156086 -0.000216092)
(0.000112889 -0.000467344 0.000381516)
(-0.000147826 -0.00182996 0.000596787)
(-0.0034366 -0.00226764 0.00231401)
(-0.0101635 -0.00235368 0.00307741)
(-0.0170841 -0.00268917 0.00317912)
(-0.0226955 -0.00345414 0.00268966)
(-0.0252018 -0.00454515 0.0015122)
(-0.0229651 -0.00553795 -0.000210911)
(-0.0156906 -0.00572678 -0.00174463)
(-0.00545285 -0.00453045 -0.00176444)
(-4.55844e-06 -0.00167513 0.000238761)
(-0.000349624 -0.00274928 0.000283786)
(-0.00500487 -0.00387059 0.00236307)
(-0.0141163 -0.00419733 0.00326692)
(-0.0232488 -0.00464752 0.00322217)
(-0.0303688 -0.00550605 0.00229582)
(-0.0331795 -0.00665266 0.000418467)
(-0.0296764 -0.00754268 -0.00210005)
(-0.0197072 -0.00746913 -0.00402041)
(-0.00628677 -0.00588895 -0.00347533)
(0.000355144 -0.00250246 -4.33418e-05)
(-0.000498144 -0.00233534 -0.000136823)
(-0.00608766 -0.0034315 0.00200093)
(-0.0167787 -0.00376754 0.0029237)
(-0.0273148 -0.00412918 0.00274643)
(-0.0353033 -0.00475898 0.00150746)
(-0.0380783 -0.00556166 -0.000833168)
(-0.0334781 -0.00609919 -0.00382313)
(-0.0216308 -0.00591019 -0.00585229)
(-0.00623057 -0.0046564 -0.00473318)
(0.000834494 -0.00209571 -0.000239057)
(-0.000579152 -0.000902985 -0.000399777)
(-0.00664905 -0.00134849 0.00172149)
(-0.0181341 -0.00148689 0.00263494)
(-0.0293533 -0.00162165 0.00238251)
(-0.0377256 -0.00184496 0.000980885)
(-0.0404141 -0.00212019 -0.00159307)
(-0.0351955 -0.00229669 -0.00477904)
(-0.0223755 -0.00220546 -0.00680888)
(-0.00603276 -0.00173857 -0.00535472)
(0.0011376 -0.000802186 -0.000327572)
(-0.000579152 0.000903018 -0.000399777)
(-0.00664905 0.00134852 0.00172149)
(-0.0181341 0.00148691 0.00263494)
(-0.0293533 0.00162167 0.00238251)
(-0.0377256 0.00184498 0.000980885)
(-0.0404141 0.0021202 -0.00159307)
(-0.0351955 0.0022967 -0.00477904)
(-0.0223755 0.00220546 -0.00680888)
(-0.00603276 0.00173857 -0.00535472)
(0.0011376 0.00080219 -0.000327571)
(-0.000498143 0.00233538 -0.000136824)
(-0.00608766 0.00343154 0.00200093)
(-0.0167788 0.00376757 0.0029237)
(-0.0273148 0.0041292 0.00274643)
(-0.0353033 0.00475899 0.00150746)
(-0.0380783 0.00556167 -0.000833167)
(-0.0334781 0.0060992 -0.00382313)
(-0.0216308 0.0059102 -0.00585229)
(-0.00623057 0.00465641 -0.00473317)
(0.000834494 0.00209571 -0.000239057)
(-0.000349625 0.00274935 0.000283783)
(-0.00500489 0.00387064 0.00236306)
(-0.0141164 0.00419736 0.00326692)
(-0.0232488 0.00464754 0.00322217)
(-0.0303688 0.00550606 0.00229582)
(-0.0331795 0.00665267 0.000418468)
(-0.0296765 0.00754269 -0.00210005)
(-0.0197072 0.00746914 -0.00402041)
(-0.00628677 0.00588896 -0.00347533)
(0.000355144 0.00250247 -4.33417e-05)
(-0.000147838 0.00183007 0.000596771)
(-0.00343664 0.00226769 0.002314)
(-0.0101635 0.00235371 0.0030774)
(-0.0170841 0.00268919 0.00317912)
(-0.0226956 0.00345415 0.00268966)
(-0.0252018 0.00454516 0.0015122)
(-0.0229651 0.00553795 -0.000210911)
(-0.0156906 0.00572678 -0.00174463)
(-0.00545285 0.00453045 -0.00176444)
(-4.5595e-06 0.00167513 0.000238761)
(3.23115e-05 0.000514524 0.000340413)
(-0.00139647 0.000484018 0.00107792)
(-0.00457208 0.000441379 0.0014401)
(-0.00797111 0.000551536 0.00160026)
(-0.0108909 0.000860954 0.00157023)
(-0.0123635 0.00133004 0.00125792)
(-0.011445 0.00179425 0.000651713)
(-0.00788117 0.00196159 -1.7813e-05)
(-0.00262554 0.00156086 -0.000216093)
(0.000112887 0.000467345 0.000381516)
(-0.000623062 -0.00146887 0.00347141)
(-0.00409702 -0.0018963 0.00697123)
(-0.0101484 -0.00193467 0.0083481)
(-0.0163934 -0.0019627 0.00855284)
(-0.021643 -0.00213747 0.00768378)
(-0.0243162 -0.0024808 0.00550767)
(-0.0228511 -0.00283611 0.00214473)
(-0.0165995 -0.00285212 -0.00133766)
(-0.00681153 -0.00209534 -0.00276036)
(-0.000654006 -0.000320637 -0.000500853)
(-0.00195994 -0.00435866 0.00580591)
(-0.01086 -0.00614742 0.0132541)
(-0.0253038 -0.00644471 0.01592)
(-0.0394416 -0.00654319 0.0153477)
(-0.0503973 -0.00695854 0.0119)
(-0.0550498 -0.00771969 0.00549837)
(-0.0507044 -0.00841676 -0.00290565)
(-0.0365958 -0.00816926 -0.0101754)
(-0.0157922 -0.00609821 -0.0111031)
(-0.00214765 -0.00165357 -0.00289851)
(-0.00304818 -0.00582373 0.00561179)
(-0.0160802 -0.00877689 0.014438)
(-0.0365125 -0.00935843 0.0173508)
(-0.0557523 -0.00946864 0.0157186)
(-0.0697998 -0.00985432 0.00995108)
(-0.0747796 -0.0105391 0.000250942)
(-0.0676151 -0.0110036 -0.0115004)
(-0.047872 -0.0103822 -0.0204166)
(-0.0201437 -0.00788665 -0.0192436)
(-0.00252417 -0.00286383 -0.00516867)
(-0.0037761 -0.00471951 0.004734)
(-0.0196123 -0.007323 0.0137606)
(-0.0440102 -0.00785252 0.0164985)
(-0.066373 -0.00790984 0.0139529)
(-0.0819964 -0.00811989 0.00651197)
(-0.0866094 -0.00850429 -0.00532581)
(-0.0771185 -0.00863582 -0.0189519)
(-0.0536431 -0.0080234 -0.0283058)
(-0.0218295 -0.00616381 -0.0250154)
(-0.00235971 -0.00249449 -0.00667765)
(-0.00413855 -0.00179014 0.00411115)
(-0.0213935 -0.00280935 0.0130542)
(-0.0477714 -0.00301746 0.0156137)
(-0.0716089 -0.00302944 0.0125558)
(-0.0878621 -0.0030844 0.00425679)
(-0.0921002 -0.00319343 -0.00858902)
(-0.0813164 -0.00320108 -0.0229792)
(-0.0559974 -0.00295413 -0.0323318)
(-0.022327 -0.00228438 -0.0278293)
(-0.00216851 -0.000968043 -0.00737983)
(-0.00413855 0.00179017 0.00411114)
(-0.0213935 0.00280937 0.0130542)
(-0.0477714 0.00301748 0.0156137)
(-0.0716089 0.00302946 0.0125558)
(-0.0878621 0.00308441 0.00425679)
(-0.0921002 0.00319344 -0.00858902)
(-0.0813164 0.00320109 -0.0229792)
(-0.0559974 0.00295414 -0.0323318)
(-0.022327 0.00228438 -0.0278293)
(-0.00216851 0.000968047 -0.00737983)
(-0.0037761 0.00471955 0.00473399)
(-0.0196123 0.00732303 0.0137606)
(-0.0440102 0.00785254 0.0164985)
(-0.066373 0.00790985 0.0139529)
(-0.0819964 0.0081199 0.00651197)
(-0.0866094 0.0085043 -0.00532581)
(-0.0771185 0.00863583 -0.0189519)
(-0.0536432 0.0080234 -0.0283058)
(-0.0218295 0.00616382 -0.0250154)
(-0.00235971 0.0024945 -0.00667765)
(-0.00304818 0.00582377 0.00561178)
(-0.0160802 0.00877693 0.014438)
(-0.0365125 0.00935845 0.0173508)
(-0.0557523 0.00946865 0.0157186)
(-0.0697998 0.00985433 0.00995107)
(-0.0747796 0.0105391 0.000250941)
(-0.0676151 0.0110036 -0.0115004)
(-0.047872 0.0103822 -0.0204166)
(-0.0201438 0.00788666 -0.0192436)
(-0.00252417 0.00286383 -0.00516867)
(-0.00195995 0.00435872 0.00580587)
(-0.01086 0.00614746 0.0132541)
(-0.0253038 0.00644473 0.01592)
(-0.0394416 0.0065432 0.0153477)
(-0.0503973 0.00695855 0.0119)
(-0.0550498 0.00771969 0.00549837)
(-0.0507044 0.00841676 -0.00290565)
(-0.0365958 0.00816926 -0.0101754)
(-0.0157922 0.00609821 -0.0111031)
(-0.00214765 0.00165357 -0.00289851)
(-0.000623086 0.0014689 0.00347131)
(-0.00409707 0.00189632 0.00697117)
(-0.0101484 0.00193468 0.00834807)
(-0.0163934 0.0019627 0.00855282)
(-0.0216431 0.00213747 0.00768378)
(-0.0243162 0.0024808 0.00550767)
(-0.0228511 0.00283611 0.00214472)
(-0.0165995 0.00285212 -0.00133766)
(-0.00681153 0.00209534 -0.00276036)
(-0.000654007 0.000320637 -0.000500854)
(-0.00109669 -0.00228649 0.0101589)
(-0.00597117 -0.0030309 0.0182129)
(-0.0138717 -0.0030103 0.0208516)
(-0.0219945 -0.00278329 0.0206135)
(-0.0291918 -0.00263958 0.0178475)
(-0.0336694 -0.00272464 0.0121687)
(-0.0332169 -0.00296307 0.00383651)
(-0.0260758 -0.00300677 -0.00497022)
(-0.0125943 -0.00222722 -0.00940384)
(-0.00218252 -5.21394e-05 -0.00464759)
(-0.00347102 -0.00647419 0.0169636)
(-0.0167621 -0.00913231 0.0334343)
(-0.0368323 -0.00915699 0.0382222)
(-0.056109 -0.00839319 0.0355225)
(-0.0714228 -0.00775126 0.0263698)
(-0.0791683 -0.00758823 0.0108587)
(-0.075612 -0.00773306 -0.00900961)
(-0.0582327 -0.00750297 -0.0269139)
(-0.0286873 -0.00567979 -0.0313131)
(-0.0054658 -0.000952338 -0.0130996)
(-0.00542513 -0.0082999 0.0180795)
(-0.0253492 -0.0123355 0.0374157)
(-0.0543826 -0.0124228 0.0422306)
(-0.0808982 -0.011217 0.0366796)
(-0.100372 -0.00999575 0.022096)
(-0.108454 -0.00920428 -0.000662363)
(-0.101208 -0.00873067 -0.0276454)
(-0.0763776 -0.0081519 -0.0494541)
(-0.0369448 -0.00640818 -0.0502846)
(-0.00676018 -0.00196858 -0.0196481)
(-0.0067507 -0.00656598 0.0174229)
(-0.0311979 -0.0099977 0.0372026)
(-0.0661236 -0.0100539 0.0412934)
(-0.0968836 -0.00895064 0.0334034)
(-0.118162 -0.00774502 0.0150801)
(-0.125425 -0.00680104 -0.0120323)
(-0.11505 -0.00612598 -0.0426772)
(-0.0854515 -0.00560758 -0.0655494)
(-0.0405282 -0.00455834 -0.0627733)
(-0.0070342 -0.00172836 -0.0236883)
(-0.00741201 -0.00246162 0.0167617)
(-0.0341343 -0.00378301 0.0363919)
(-0.0719575 -0.00379683 0.0399221)
(-0.104628 -0.00335061 0.0307568)
(-0.126473 -0.00284844 0.0105938)
(-0.132998 -0.0024314 -0.0184331)
(-0.120907 -0.00213256 -0.0504316)
(-0.0890543 -0.0019382 -0.0733552)
(-0.0417837 -0.00161012 -0.0685768)
(-0.0070275 -0.000669258 -0.0254967)
(-0.00741201 0.00246165 0.0167617)
(-0.0341343 0.00378303 0.0363919)
(-0.0719575 0.00379685 0.0399221)
(-0.104628 0.00335063 0.0307568)
(-0.126473 0.00284845 0.0105938)
(-0.132998 0.00243141 -0.0184331)
(-0.120907 0.00213256 -0.0504316)
(-0.0890543 0.0019382 -0.0733552)
(-0.0417837 0.00161013 -0.0685768)
(-0.0070275 0.000669262 -0.0254967)
(-0.0067507 0.006566 0.0174229)
(-0.0311979 0.00999772 0.0372026)
(-0.0661236 0.0100539 0.0412934)
(-0.0968836 0.00895065 0.0334034)
(-0.118162 0.00774503 0.0150801)
(-0.125425 0.00680105 -0.0120323)
(-0.11505 0.00612599 -0.0426772)
(-0.0854515 0.00560759 -0.0655494)
(-0.0405282 0.00455834 -0.0627733)
(-0.0070342 0.00172836 -0.0236883)
(-0.00542513 0.00829993 0.0180795)
(-0.0253492 0.0123355 0.0374157)
(-0.0543826 0.0124228 0.0422306)
(-0.0808982 0.011217 0.0366796)
(-0.100372 0.00999576 0.022096)
(-0.108454 0.00920429 -0.000662366)
(-0.101208 0.00873067 -0.0276454)
(-0.0763776 0.0081519 -0.0494541)
(-0.0369448 0.00640819 -0.0502846)
(-0.00676018 0.00196859 -0.0196481)
(-0.00347103 0.00647422 0.0169635)
(-0.0167621 0.00913233 0.0334343)
(-0.0368324 0.009157 0.0382222)
(-0.056109 0.0083932 0.0355225)
(-0.0714228 0.00775127 0.0263698)
(-0.0791683 0.00758823 0.0108587)
(-0.075612 0.00773306 -0.00900961)
(-0.0582328 0.00750297 -0.0269139)
(-0.0286873 0.00567979 -0.0313131)
(-0.0054658 0.000952339 -0.0130996)
(-0.0010967 0.00228651 0.0101588)
(-0.00597119 0.0030309 0.0182128)
(-0.0138717 0.0030103 0.0208516)
(-0.0219946 0.00278329 0.0206135)
(-0.0291918 0.00263958 0.0178475)
(-0.0336694 0.00272464 0.0121687)
(-0.0332169 0.00296307 0.00383651)
(-0.0260758 0.00300677 -0.00497022)
(-0.0125943 0.00222722 -0.00940384)
(-0.00218252 5.21394e-05 -0.00464759)
(-0.00146131 -0.00299526 0.0189782)
(-0.00729049 -0.00389327 0.0323558)
(-0.0163854 -0.00360594 0.0360119)
(-0.0259623 -0.00287353 0.0348898)
(-0.0353722 -0.00215229 0.0297888)
(-0.0429022 -0.0017712 0.0199655)
(-0.0455271 -0.00186236 0.00531813)
(-0.0394421 -0.00223876 -0.0112333)
(-0.0225902 -0.00197878 -0.0213332)
(-0.0054858 0.000131782 -0.0136486)
(-0.0046732 -0.0082818 0.0317476)
(-0.0212784 -0.0113148 0.0588625)
(-0.0454636 -0.0104196 0.0653502)
(-0.068797 -0.00796778 0.0595783)
(-0.0887059 -0.0053695 0.0436372)
(-0.10166 -0.00354697 0.0174372)
(-0.102628 -0.00291752 -0.0169628)
(-0.0857369 -0.00347601 -0.050684)
(-0.0486883 -0.00351881 -0.0637389)
(-0.0117782 -0.00016627 -0.0331021)
(-0.00731627 -0.0103619 0.0349874)
(-0.0325455 -0.014779 0.0668222)
(-0.0679558 -0.0134452 0.0729874)
(-0.0999951 -0.0097134 0.0623987)
(-0.124771 -0.00555904 0.0379235)
(-0.138155 -0.00225359 0.000655776)
(-0.135157 -0.000673046 -0.0449481)
(-0.110085 -0.00121293 -0.0859652)
(-0.0614955 -0.00231259 -0.0957395)
(-0.0144633 -0.000665106 -0.0459544)
(-0.00910639 -0.00806068 0.0351102)
(-0.0401761 -0.0117215 0.0678237)
(-0.0828004 -0.0105218 0.0726454)
(-0.119567 -0.00724278 0.0583439)
(-0.145901 -0.0035385 0.0284499)
(-0.157932 -0.000499145 -0.0147756)
(-0.151337 0.000934957 -0.0653191)
(-0.121211 0.000397513 -0.108399)
(-0.0669218 -0.000952144 -0.114513)
(-0.0153933 -0.000566568 -0.0530791)
(-0.00999261 -0.00299562 0.0347146)
(-0.0439605 -0.00438603 0.0673124)
(-0.0900383 -0.00390421 0.0711732)
(-0.128766 -0.00261291 0.0549325)
(-0.155322 -0.00115308 0.0225641)
(-0.166176 4.46623e-05 -0.0229837)
(-0.157619 0.000604936 -0.0750865)
(-0.125291 0.00036735 -0.118413)
(-0.0688431 -0.0002183 -0.12256)
(-0.0156728 -0.000213293 -0.0560499)
(-0.00999261 0.00299564 0.0347146)
(-0.0439605 0.00438605 0.0673124)
(-0.0900383 0.00390423 0.0711732)
(-0.128766 0.00261292 0.0549325)
(-0.155322 0.00115309 0.0225641)
(-0.166176 -4.46554e-05 -0.0229837)
(-0.157619 -0.00060493 -0.0750865)
(-0.125291 -0.000367345 -0.118413)
(-0.0688431 0.000218304 -0.12256)
(-0.0156728 0.000213297 -0.0560499)
(-0.00910639 0.00806069 0.0351102)
(-0.0401761 0.0117215 0.0678237)
(-0.0828004 0.0105218 0.0726454)
(-0.119567 0.00724279 0.0583439)
(-0.145901 0.00353851 0.0284499)
(-0.157932 0.000499152 -0.0147756)
(-0.151337 -0.000934952 -0.0653191)
(-0.121211 -0.00039751 -0.108399)
(-0.0669218 0.000952146 -0.114513)
(-0.0153933 0.000566572 -0.0530791)
(-0.00731627 0.0103619 0.0349874)
(-0.0325455 0.014779 0.0668222)
(-0.0679558 0.0134452 0.0729874)
(-0.0999951 0.00971341 0.0623987)
(-0.124771 0.00555905 0.0379235)
(-0.138155 0.00225359 0.000655773)
(-0.135157 0.00067305 -0.0449481)
(-0.110085 0.00121293 -0.0859652)
(-0.0614955 0.00231259 -0.0957395)
(-0.0144633 0.000665109 -0.0459544)
(-0.00467321 0.00828182 0.0317475)
(-0.0212784 0.0113148 0.0588625)
(-0.0454636 0.0104196 0.0653502)
(-0.068797 0.00796778 0.0595783)
(-0.0887059 0.0053695 0.0436372)
(-0.10166 0.00354697 0.0174372)
(-0.102628 0.00291752 -0.0169628)
(-0.0857369 0.00347601 -0.050684)
(-0.0486883 0.00351881 -0.0637389)
(-0.0117782 0.000166271 -0.0331021)
(-0.00146132 0.00299527 0.0189781)
(-0.0072905 0.00389327 0.0323558)
(-0.0163854 0.00360594 0.0360119)
(-0.0259623 0.00287353 0.0348898)
(-0.0353722 0.00215229 0.0297887)
(-0.0429022 0.0017712 0.0199655)
(-0.0455271 0.00186236 0.00531813)
(-0.0394421 0.00223876 -0.0112333)
(-0.0225902 0.00197878 -0.0213332)
(-0.0054858 -0.000131782 -0.0136486)
(-0.00198839 -0.00354222 0.0297097)
(-0.00852746 -0.00439401 0.0484852)
(-0.0179709 -0.00356402 0.0524297)
(-0.028232 -0.00196145 0.0498176)
(-0.0397762 -0.00023408 0.0420771)
(-0.0515254 0.00107491 0.0278474)
(-0.059712 0.00139863 0.0058087)
(-0.0576582 0.000436988 -0.0213383)
(-0.0391827 -0.000747479 -0.0414508)
(-0.0120801 3.89513e-05 -0.0315682)
(-0.00587076 -0.00960894 0.0495578)
(-0.0247766 -0.012454 0.0879524)
(-0.0510735 -0.00986537 0.0953061)
(-0.0766592 -0.00469147 0.0858055)
(-0.100554 0.00105924 0.0629525)
(-0.12017 0.00568027 0.0257822)
(-0.12937 0.00751676 -0.0252268)
(-0.118026 0.00530757 -0.0805545)
(-0.0779401 0.00102416 -0.111272)
(-0.0231881 0.000115206 -0.0697043)
(-0.00891223 -0.0117768 0.0554536)
(-0.0376181 -0.0158386 0.100791)
(-0.0763503 -0.0120971 0.107698)
(-0.111105 -0.00456595 0.0919201)
(-0.139753 0.00383865 0.0583261)
(-0.15942 0.0105657 0.00733019)
(-0.164358 0.0132502 -0.0584504)
(-0.144964 0.0101908 -0.125401)
(-0.0941774 0.00374073 -0.156284)
(-0.0275896 0.000211328 -0.0914167)
(-0.0109166 -0.00902455 0.0567193)
(-0.0461128 -0.0123253 0.103608)
(-0.0925309 -0.00911209 0.108815)
(-0.131712 -0.00273149 0.0885673)
(-0.161053 0.00429962 0.0489161)
(-0.178288 0.00976787 -0.0084004)
(-0.179061 0.0116305 -0.0796222)
(-0.155121 0.0088193 -0.149975)
(-0.100246 0.00345359 -0.1792)
(-0.0292705 0.000230615 -0.1021)
(-0.011886 -0.00332682 0.0567911)
(-0.0502269 -0.00456507 0.103725)
(-0.100177 -0.00331112 0.107736)
(-0.140936 -0.000848613 0.085273)
(-0.169822 0.00183828 0.0431241)
(-0.185255 0.00388461 -0.0162764)
(-0.183888 0.00448903 -0.0888334)
(-0.158251 0.00335261 -0.159838)
(-0.102289 0.00133159 -0.188144)
(-0.0298912 0.000100196 -0.10625)
(-0.011886 0.00332683 0.0567911)
(-0.0502269 0.00456508 0.103725)
(-0.100177 0.00331113 0.107736)
(-0.140936 0.000848622 0.085273)
(-0.169822 -0.00183827 0.0431241)
(-0.185255 -0.00388461 -0.0162764)
(-0.183888 -0.00448902 -0.0888334)
(-0.158251 -0.00335261 -0.159838)
(-0.102289 -0.00133158 -0.188144)
(-0.0298912 -0.000100192 -0.10625)
(-0.0109166 0.00902456 0.0567193)
(-0.0461128 0.0123253 0.103608)
(-0.0925309 0.0091121 0.108815)
(-0.131712 0.0027315 0.0885673)
(-0.161053 -0.00429962 0.0489161)
(-0.178288 -0.00976787 -0.0084004)
(-0.179061 -0.0116305 -0.0796222)
(-0.155121 -0.0088193 -0.149975)
(-0.100246 -0.00345358 -0.1792)
(-0.0292705 -0.000230611 -0.1021)
(-0.00891223 0.0117768 0.0554536)
(-0.0376181 0.0158387 0.100791)
(-0.0763503 0.0120971 0.107698)
(-0.111105 0.00456596 0.0919201)
(-0.139753 -0.00383865 0.0583261)
(-0.15942 -0.0105657 0.00733019)
(-0.164358 -0.0132502 -0.0584504)
(-0.144964 -0.0101908 -0.125401)
(-0.0941774 -0.00374073 -0.156284)
(-0.0275896 -0.000211326 -0.0914167)
(-0.00587076 0.00960895 0.0495578)
(-0.0247766 0.012454 0.0879524)
(-0.0510735 0.00986537 0.0953061)
(-0.0766592 0.00469147 0.0858055)
(-0.100554 -0.00105923 0.0629525)
(-0.12017 -0.00568027 0.0257822)
(-0.12937 -0.00751676 -0.0252268)
(-0.118026 -0.00530757 -0.0805545)
(-0.0779401 -0.00102416 -0.111272)
(-0.0231881 -0.000115205 -0.0697043)
(-0.00198839 0.00354223 0.0297096)
(-0.00852747 0.00439401 0.0484852)
(-0.0179709 0.00356402 0.0524297)
(-0.028232 0.00196145 0.0498176)
(-0.0397762 0.00023408 0.042077)
(-0.0515254 -0.00107491 0.0278474)
(-0.059712 -0.00139863 0.0058087)
(-0.0576582 -0.000436987 -0.0213383)
(-0.0391827 0.00074748 -0.0414508)
(-0.0120801 -3.89513e-05 -0.0315682)
(-0.00330461 -0.00395993 0.0425328)
(-0.0106797 -0.00452262 0.0652486)
(-0.0189879 -0.00282379 0.0677523)
(-0.0281313 8.04913e-05 0.0625739)
(-0.040473 0.00341464 0.0519534)
(-0.0564525 0.00636285 0.0336355)
(-0.072334 0.00776827 0.00419609)
(-0.0784112 0.00626471 -0.0359308)
(-0.0626753 0.00250344 -0.0716235)
(-0.0228894 -0.000321296 -0.0639548)
(-0.00780341 -0.0104745 0.0700615)
(-0.0281277 -0.0125251 0.118364)
(-0.0532057 -0.00748028 0.124749)
(-0.0770037 0.00136909 0.110881)
(-0.101355 0.0114246 0.0820092)
(-0.125873 0.0200517 0.0357104)
(-0.14467 0.0238912 -0.0309365)
(-0.144242 0.0194297 -0.11168)
(-0.110491 0.00819973 -0.171662)
(-0.0388717 -0.000803948 -0.130826)
(-0.0108487 -0.0125273 0.0786016)
(-0.0409685 -0.0155674 0.1364)
(-0.0781959 -0.00866519 0.142852)
(-0.110118 0.0034745 0.122409)
(-0.137566 0.0168427 0.0822966)
(-0.160228 0.027488 0.0214114)
(-0.173344 0.0310512 -0.0617692)
(-0.165089 0.0242296 -0.158238)
(-0.124358 0.0100825 -0.225078)
(-0.0436348 -0.000489268 -0.163519)
(-0.012726 -0.00943922 0.0809709)
(-0.0490785 -0.0119071 0.141239)
(-0.0933982 -0.0062245 0.146207)
(-0.128533 0.00364496 0.121533)
(-0.15502 0.0141743 0.0760339)
(-0.173625 0.0219591 0.00976703)
(-0.181725 0.0237081 -0.0784946)
(-0.169658 0.0176566 -0.179721)
(-0.128017 0.00706221 -0.248553)
(-0.0454044 -0.000194426 -0.177972)
(-0.0135944 -0.00344891 0.0814979)
(-0.0528615 -0.00436894 0.142099)
(-0.10026 -0.00220139 0.145944)
(-0.136219 0.00152421 0.119287)
(-0.161367 0.00541848 0.0718686)
(-0.177381 0.00815679 0.0042797)
(-0.183158 0.00859436 -0.0849284)
(-0.170166 0.0062249 -0.187403)
(-0.129126 0.00243097 -0.257031)
(-0.0461583 -3.74032e-05 -0.18336)
(-0.0135944 0.00344892 0.0814979)
(-0.0528615 0.00436895 0.142099)
(-0.10026 0.0022014 0.145944)
(-0.136219 -0.00152421 0.119287)
(-0.161367 -0.00541847 0.0718686)
(-0.177381 -0.00815679 0.0042797)
(-0.183158 -0.00859436 -0.0849284)
(-0.170166 -0.0062249 -0.187403)
(-0.129126 -0.00243097 -0.257031)
(-0.0461583 3.74065e-05 -0.18336)
(-0.012726 0.00943923 0.0809709)
(-0.0490785 0.0119071 0.141239)
(-0.0933982 0.00622451 0.146207)
(-0.128533 -0.00364496 0.121533)
(-0.15502 -0.0141743 0.0760339)
(-0.173625 -0.0219591 0.00976703)
(-0.181725 -0.0237081 -0.0784946)
(-0.169658 -0.0176565 -0.179721)
(-0.128017 -0.00706221 -0.248553)
(-0.0454044 0.00019443 -0.177972)
(-0.0108487 0.0125273 0.0786016)
(-0.0409685 0.0155674 0.1364)
(-0.0781959 0.0086652 0.142852)
(-0.110118 -0.00347449 0.122409)
(-0.137566 -0.0168427 0.0822966)
(-0.160228 -0.027488 0.0214114)
(-0.173344 -0.0310512 -0.0617692)
(-0.165089 -0.0242296 -0.158238)
(-0.124358 -0.0100824 -0.225078)
(-0.0436348 0.000489269 -0.163519)
(-0.00780341 0.0104745 0.0700615)
(-0.0281277 0.0125251 0.118364)
(-0.0532057 0.00748028 0.124749)
(-0.0770037 -0.00136909 0.110881)
(-0.101355 -0.0114246 0.0820092)
(-0.125873 -0.0200517 0.0357104)
(-0.14467 -0.0238912 -0.0309365)
(-0.144242 -0.0194297 -0.11168)
(-0.110491 -0.00819973 -0.171662)
(-0.0388717 0.000803949 -0.130826)
(-0.00330462 0.00395993 0.0425328)
(-0.0106797 0.00452262 0.0652486)
(-0.0189879 0.00282379 0.0677523)
(-0.0281313 -8.04912e-05 0.0625739)
(-0.040473 -0.00341464 0.0519533)
(-0.0564525 -0.00636285 0.0336355)
(-0.072334 -0.00776827 0.00419609)
(-0.0784112 -0.00626471 -0.0359308)
(-0.0626753 -0.00250344 -0.0716235)
(-0.0228894 0.000321297 -0.0639548)
(-0.00704268 -0.00458997 0.0594911)
(-0.0161467 -0.0047007 0.0811103)
(-0.0200116 -0.00186664 0.0786612)
(-0.0240634 0.00264538 0.0689939)
(-0.0333322 0.00795314 0.0552046)
(-0.0507315 0.0131239 0.0338629)
(-0.0743822 0.0163396 -0.00112397)
(-0.0924636 0.0146463 -0.054416)
(-0.0877248 0.00728453 -0.110803)
(-0.0362194 -0.00137798 -0.117477)
(-0.0125949 -0.0115022 0.0949189)
(-0.0341486 -0.0123929 0.14707)
(-0.0518945 -0.00451385 0.148294)
(-0.0659269 0.0081987 0.128811)
(-0.0820309 0.0227028 0.095711)
(-0.103461 0.0357923 0.0450448)
(-0.127577 0.042447 -0.0305813)
(-0.1404 0.0359648 -0.134225)
(-0.127086 0.0159075 -0.233271)
(-0.050024 -0.00439264 -0.221217)
(-0.0153048 -0.0131482 0.105218)
(-0.0452079 -0.0149291 0.1695)
(-0.0731155 -0.0048864 0.172052)
(-0.0924819 0.0113242 0.147268)
(-0.108191 0.0288914 0.104498)
(-0.123838 0.0430048 0.0408798)
(-0.138917 0.0477209 -0.0502287)
(-0.142898 0.0372723 -0.171765)
(-0.128382 0.0144342 -0.285769)
(-0.0509312 -0.00426526 -0.26337)
(-0.0167369 -0.00964749 0.108025)
(-0.0516142 -0.0111801 0.17579)
(-0.0850308 -0.00328619 0.177737)
(-0.105839 0.00930573 0.150003)
(-0.118753 0.0223807 0.103506)
(-0.128552 0.031897 0.0361196)
(-0.137454 0.0336182 -0.0589273)
(-0.137953 0.0246095 -0.186098)
(-0.126281 0.00863666 -0.306023)
(-0.0513888 -0.00269636 -0.280423)
(-0.0173419 -0.00347966 0.108691)
(-0.0544306 -0.00405825 0.177116)
(-0.0900502 -0.00111544 0.178332)
(-0.110831 0.00353096 0.149279)
(-0.121687 0.00823372 0.101732)
(-0.128402 0.011453 0.0338169)
(-0.134909 0.0117268 -0.0617945)
(-0.135028 0.00827765 -0.190771)
(-0.125661 0.00275657 -0.313143)
(-0.0519097 -0.000876237 -0.286721)
(-0.0173419 0.00347967 0.108691)
(-0.0544306 0.00405826 0.177116)
(-0.0900502 0.00111544 0.178332)
(-0.110831 -0.00353095 0.149279)
(-0.121687 -0.00823372 0.101732)
(-0.128402 -0.011453 0.0338169)
(-0.134909 -0.0117268 -0.0617945)
(-0.135028 -0.00827764 -0.190771)
(-0.125661 -0.00275657 -0.313143)
(-0.0519097 0.00087624 -0.286721)
(-0.0167369 0.0096475 0.108025)
(-0.0516142 0.0111801 0.17579)
(-0.0850308 0.0032862 0.177737)
(-0.105839 -0.00930572 0.150003)
(-0.118753 -0.0223807 0.103506)
(-0.128552 -0.031897 0.0361196)
(-0.137454 -0.0336182 -0.0589273)
(-0.137953 -0.0246095 -0.186098)
(-0.126281 -0.00863665 -0.306023)
(-0.0513888 0.00269636 -0.280423)
(-0.0153048 0.0131482 0.105218)
(-0.0452079 0.0149291 0.1695)
(-0.0731155 0.00488641 0.172052)
(-0.0924819 -0.0113242 0.147268)
(-0.108191 -0.0288914 0.104498)
(-0.123838 -0.0430048 0.0408798)
(-0.138917 -0.0477209 -0.0502287)
(-0.142898 -0.0372723 -0.171765)
(-0.128382 -0.0144342 -0.285769)
(-0.0509312 0.00426526 -0.26337)
(-0.0125949 0.0115022 0.0949189)
(-0.0341486 0.0123929 0.14707)
(-0.0518945 0.00451385 0.148294)
(-0.0659269 -0.00819869 0.128811)
(-0.0820309 -0.0227028 0.095711)
(-0.103461 -0.0357923 0.0450448)
(-0.127577 -0.042447 -0.0305813)
(-0.1404 -0.0359648 -0.134225)
(-0.127086 -0.0159075 -0.233271)
(-0.050024 0.00439264 -0.221217)
(-0.00704269 0.00458997 0.059491)
(-0.0161467 0.0047007 0.0811103)
(-0.0200116 0.00186664 0.0786612)
(-0.0240634 -0.00264538 0.0689939)
(-0.0333322 -0.00795314 0.0552046)
(-0.0507315 -0.0131239 0.0338629)
(-0.0743822 -0.0163396 -0.00112397)
(-0.0924636 -0.0146463 -0.0544161)
(-0.0877248 -0.00728452 -0.110803)
(-0.0362194 0.00137798 -0.117477)
(-0.0164901 -0.00627148 0.0819232)
(-0.0280917 -0.00637934 0.0926807)
(-0.0177087 -0.00255083 0.0808779)
(-0.0084043 0.00343837 0.0645841)
(-0.00697877 0.0104283 0.0476674)
(-0.0186376 0.0176974 0.0255175)
(-0.0455179 0.0232722 -0.0111993)
(-0.0762247 0.0218621 -0.0739002)
(-0.0964962 0.0102343 -0.153209)
(-0.0418432 -0.00612938 -0.196159)
(-0.0254773 -0.0143866 0.122811)
(-0.0493706 -0.0150927 0.167495)
(-0.0444727 -0.00539714 0.158514)
(-0.033268 0.00971977 0.131305)
(-0.0257389 0.0268553 0.0962365)
(-0.0284205 0.0432251 0.0485012)
(-0.0460061 0.0537629 -0.0237661)
(-0.0677645 0.0473979 -0.137204)
(-0.0947775 0.0188665 -0.274962)
(-0.0358262 -0.0145009 -0.326946)
(-0.0282652 -0.0152191 0.132809)
(-0.0588181 -0.0169069 0.192532)
(-0.0606207 -0.00557457 0.186962)
(-0.0501708 0.0119348 0.156475)
(-0.0375338 0.0308367 0.114416)
(-0.0292375 0.0468275 0.0569079)
(-0.0331635 0.0541636 -0.0271595)
(-0.0430017 0.0433246 -0.157009)
(-0.0743423 0.0137025 -0.315415)
(-0.0274273 -0.0126422 -0.368286)
(-0.0292735 -0.0106316 0.135073)
(-0.0631657 -0.0120969 0.199371)
(-0.0684023 -0.0036243 0.194681)
(-0.0577056 0.00921417 0.163012)
(-0.0413708 0.0224924 0.11899)
(-0.0264176 0.0327071 0.0591042)
(-0.023439 0.0359012 -0.0278317)
(-0.0292087 0.0267471 -0.163097)
(-0.0658998 0.00733114 -0.329537)
(-0.0256435 -0.00748746 -0.38355)
(-0.0295914 -0.00374243 0.135506)
(-0.0647822 -0.0042937 0.20076)
(-0.071194 -0.00120745 0.19598)
(-0.0599495 0.00340413 0.163834)
(-0.041667 0.00804427 0.119479)
(-0.0238728 0.0114139 0.0594266)
(-0.0186749 0.0121751 -0.0279621)
(-0.0241368 0.00873694 -0.165139)
(-0.0640183 0.00223626 -0.334681)
(-0.0258403 -0.00235869 -0.38919)
(-0.0295914 0.00374243 0.135506)
(-0.0647822 0.0042937 0.20076)
(-0.071194 0.00120746 0.19598)
(-0.0599495 -0.00340412 0.163834)
(-0.041667 -0.00804427 0.119479)
(-0.0238728 -0.0114139 0.0594266)
(-0.0186749 -0.0121751 -0.0279621)
(-0.0241368 -0.00873694 -0.165139)
(-0.0640183 -0.00223625 -0.334681)
(-0.0258403 0.0023587 -0.38919)
(-0.0292735 0.0106316 0.135073)
(-0.0631657 0.0120969 0.199371)
(-0.0684023 0.00362431 0.194681)
(-0.0577056 -0.00921417 0.163012)
(-0.0413708 -0.0224924 0.11899)
(-0.0264176 -0.0327071 0.0591042)
(-0.023439 -0.0359012 -0.0278317)
(-0.0292087 -0.026747 -0.163097)
(-0.0658998 -0.00733113 -0.329537)
(-0.0256435 0.00748746 -0.38355)
(-0.0282652 0.0152191 0.132809)
(-0.0588181 0.016907 0.192532)
(-0.0606207 0.00557458 0.186962)
(-0.0501708 -0.0119348 0.156475)
(-0.0375338 -0.0308367 0.114416)
(-0.0292375 -0.0468275 0.0569079)
(-0.0331635 -0.0541636 -0.0271595)
(-0.0430017 -0.0433246 -0.157009)
(-0.0743423 -0.0137025 -0.315415)
(-0.0274273 0.0126422 -0.368286)
(-0.0254773 0.0143866 0.122811)
(-0.0493706 0.0150927 0.167495)
(-0.0444727 0.00539714 0.158514)
(-0.033268 -0.00971977 0.131305)
(-0.0257389 -0.0268553 0.0962365)
(-0.0284205 -0.0432251 0.0485012)
(-0.0460061 -0.0537629 -0.0237661)
(-0.0677645 -0.0473979 -0.137204)
(-0.0947775 -0.0188665 -0.274962)
(-0.0358262 0.0145009 -0.326946)
(-0.0164901 0.00627148 0.0819232)
(-0.0280917 0.00637935 0.0926807)
(-0.0177087 0.00255083 0.0808779)
(-0.0084043 -0.00343837 0.0645841)
(-0.00697877 -0.0104283 0.0476674)
(-0.0186376 -0.0176974 0.0255175)
(-0.0455179 -0.0232722 -0.0111993)
(-0.0762247 -0.0218621 -0.0739002)
(-0.0964962 -0.0102343 -0.153209)
(-0.0418432 0.00612938 -0.196159)
(-0.0238329 -0.0112242 0.150176)
(-0.0202035 -0.0121124 0.0981651)
(0.0282983 -0.00748344 0.0628876)
(0.0626196 -0.000893568 0.041489)
(0.0833525 0.00652653 0.0249979)
(0.0854815 0.0144075 0.00712986)
(0.0631288 0.0216119 -0.021476)
(0.0255629 0.0207943 -0.079009)
(-0.0421209 0.00505152 -0.174199)
(-0.00680486 -0.017943 -0.259838)
(-0.0424786 -0.0230261 0.209702)
(-0.0414072 -0.0261956 0.169917)
(0.0236568 -0.0167677 0.128319)
(0.0795993 -0.00247542 0.096075)
(0.124285 0.0138386 0.0662977)
(0.152139 0.0303382 0.0323756)
(0.150255 0.0445459 -0.017128)
(0.13109 0.0425378 -0.107553)
(0.0401828 0.00988332 -0.256524)
(0.043763 -0.0320846 -0.369669)
(-0.04775 -0.0209527 0.219951)
(-0.0509485 -0.0259729 0.190505)
(0.0132261 -0.0171504 0.151976)
(0.0738497 -0.00276668 0.118437)
(0.127494 0.013576 0.0848202)
(0.169309 0.0289593 0.0450111)
(0.181627 0.0400911 -0.0114804)
(0.176824 0.0353245 -0.110599)
(0.0810549 0.00560428 -0.275322)
(0.0632385 -0.0228358 -0.395272)
(-0.0487757 -0.0134262 0.220986)
(-0.0537381 -0.0172602 0.194681)
(0.00919411 -0.011269 0.15771)
(0.0710524 -0.00154348 0.124412)
(0.127764 0.00919679 0.0901904)
(0.174792 0.0188148 0.0489437)
(0.191975 0.0248542 -0.00975365)
(0.19127 0.0207465 -0.111782)
(0.0911583 0.00322926 -0.281951)
(0.0663128 -0.0119989 -0.40395)
(-0.0488266 -0.00453376 0.220792)
(-0.05418 -0.00590885 0.195021)
(0.00848485 -0.00380363 0.158372)
(0.070919 -0.000436063 0.125203)
(0.128691 0.00320135 0.0910529)
(0.177292 0.00635855 0.0497163)
(0.195582 0.0081837 -0.00952963)
(0.195097 0.00667023 -0.112683)
(0.092322 0.00107916 -0.284713)
(0.0659481 -0.00357253 -0.407113)
(-0.0488266 0.00453377 0.220792)
(-0.05418 0.00590885 0.195021)
(0.00848485 0.00380363 0.158372)
(0.070919 0.000436067 0.125203)
(0.128691 -0.00320135 0.0910529)