/*--------------------------------*- C++ -*----------------------------------*\
  =========                 |
  \\      /  F ield         | OpenFOAM: The Open Source CFD Toolbox
   \\    /   O peration     | Website:  https://openfoam.org
    \\  /    A nd           | Version:  9
     \\/     M anipulation  |
\*---------------------------------------------------------------------------*/
FoamFile
{
    format      ascii;
    class       volScalarField;
    location    "0.94";
    object      p;
}
// * * * * * * * * * * * * * * * * * * * * * * * * * * * * * * * * * * * * * //

dimensions      [0 2 -2 0 0 0 0];

internalField   nonuniform List<scalar> 
1000
(
3.19059e-08
-0.000500663
-0.000200814
0.000850544
0.00273104
0.00531444
0.00813813
0.010436
0.0115032
0.0106433
0.000165401
-0.000749117
-0.000556821
0.000541794
0.00260703
0.00549277
0.00866075
0.0111776
0.0121862
0.0107737
0.000955151
-0.000237902
-8.42615e-05
0.00111674
0.00343353
0.00669173
0.0102431
0.0129041
0.0136605
0.0115008
0.00181289
0.00043269
0.000572496
0.00187573
0.00442258
0.00802192
0.0118397
0.0145535
0.0150447
0.0122876
0.00235252
0.000883422
0.00102208
0.00238603
0.00505939
0.00883314
0.0127969
0.0155194
0.0158509
0.0127767
0.00235211
0.00088308
0.00102182
0.00238584
0.00505924
0.00883305
0.0127968
0.0155194
0.0158509
0.0127767
0.00181158
0.000431588
0.000571659
0.00187513
0.00442214
0.00802163
0.0118395
0.0145533
0.0150446
0.0122875
0.000952525
-0.000239987
-8.57574e-05
0.00111569
0.00343279
0.00669123
0.0102427
0.0129037
0.0136602
0.0115006
0.000160311
-0.000752575
-0.00055907
0.000540319
0.00260602
0.00549207
0.00866025
0.0111772
0.0121859
0.0107734
-1.04369e-05
-0.000505833
-0.000203687
0.000848774
0.00272987
0.00531367
0.00813756
0.0104355
0.0115029
0.0106431
0.000410125
-2.8378e-05
0.000290819
0.00120891
0.00283464
0.00512257
0.00770685
0.00991592
0.0110044
0.00985664
0.00094936
1.74252e-05
0.000254393
0.0011651
0.00282836
0.00521244
0.00794186
0.0102778
0.0113261
0.0095222
0.00218431
0.000836404
0.00100188
0.00190672
0.00363822
0.00617196
0.00913626
0.0115498
0.0123903
0.00983102
0.0033617
0.00169274
0.00179282
0.00269383
0.00449833
0.00720007
0.0103365
0.0127791
0.013409
0.0102962
0.00406421
0.00222325
0.00228613
0.0031848
0.00503076
0.00783395
0.011057
0.0135008
0.0140056
0.0106184
0.00406387
0.00222295
0.00228591
0.00318463
0.00503064
0.00783385
0.011057
0.0135007
0.0140055
0.0106184
0.0033606
0.0016918
0.0017921
0.0026933
0.00449794
0.00719979
0.0103363
0.0127789
0.0134089
0.0102961
0.00218222
0.000834694
0.00100061
0.00190579
0.00363757
0.00617149
0.00913589
0.0115496
0.0123901
0.00983084
0.000945898
1.47666e-05
0.000252513
0.0011638
0.00282747
0.00521181
0.00794139
0.0102774
0.0113259
0.009522
0.000404921
-3.19506e-05
0.000288485
0.00120736
0.0028336
0.00512186
0.00770631
0.00991553
0.0110041
0.00985642
-0.000944313
-0.00151599
-0.0013225
-0.000615218
0.000826111
0.00313262
0.00608447
0.00899216
0.0107575
0.00944351
-7.91841e-05
-0.00131403
-0.00120608
-0.00050045
0.000982931
0.00341179
0.0065632
0.00964384
0.0113347
0.00886984
0.0016824
-0.000152101
-0.000179038
0.000426419
0.00188083
0.00441323
0.00778154
0.0109936
0.0124851
0.00896959
0.00329328
0.000996705
0.000837497
0.00134325
0.00277643
0.00541078
0.00891375
0.0121749
0.0134636
0.00924539
0.00423248
0.0016886
0.00145129
0.00189822
0.00332024
0.00600176
0.00956798
0.0128335
0.0140028
0.00945833
0.00423223
0.00168837
0.00145112
0.00189809
0.00332014
0.00600168
0.00956792
0.0128334
0.0140027
0.00945829
0.00329246
0.000995985
0.000836939
0.00134282
0.00277611
0.00541054
0.00891356
0.0121747
0.0134635
0.00924527
0.00168093
-0.000153367
-0.000180017
0.000425676
0.00188029
0.00441284
0.00778124
0.0109934
0.0124849
0.00896943
-8.13911e-05
-0.00131589
-0.00120748
-0.000501463
0.000982209
0.00341127
0.00656283
0.00964356
0.0113345
0.00886965
-0.000947179
-0.0015183
-0.0013242
-0.000616421
0.000825279
0.00313203
0.00608402
0.00899185
0.0107573
0.0094433
-0.00445945
-0.00515876
-0.00514654
-0.00472537
-0.00348852
-0.000996437
0.00281312
0.00731386
0.0107861
0.00988811
-0.00327183
-0.0047847
-0.00486027
-0.00442246
-0.00311072
-0.000438553
0.00367543
0.00850949
0.011911
0.00927272
-0.000979683
-0.00327408
-0.00359497
-0.00341658
-0.0023036
0.000377535
0.00464661
0.00974459
0.0130809
0.00926882
0.00107411
-0.00181983
-0.00238183
-0.0024609
-0.00154676
0.00105992
0.00544723
0.0106723
0.0139076
0.00940085
0.00225637
-0.000956891
-0.00166097
-0.00188999
-0.00108546
0.0014809
0.00588417
0.0111403
0.0143125
0.00951432
0.00225618
-0.000957054
-0.0016611
-0.0018901
-0.00108554
0.00148084
0.00588412
0.0111403
0.0143125
0.00951429
0.00107352
-0.00182035
-0.00238227
-0.00246125
-0.00154702
0.00105972
0.00544708
0.0106722
0.0139075
0.00940075
-0.000980711
-0.00327498
-0.00359571
-0.00341716
-0.00230402
0.000377224
0.00464638
0.00974442
0.0130807
0.0092687
-0.00327328
-0.00478597
-0.00486129
-0.00442322
-0.00311127
-0.000438957
0.00367513
0.00850928
0.0119108
0.00927258
-0.00446121
-0.0051603
-0.00514775
-0.00472627
-0.00348915
-0.000996923
0.00281276
0.00731363
0.0107859
0.00988794
-0.010817
-0.0114707
-0.0115593
-0.0114336
-0.0104583
-0.00769979
-0.00253123
0.00473412
0.0115702
0.0127714
-0.00935356
-0.0109432
-0.0111399
-0.0110161
-0.00997465
-0.00709299
-0.00162331
0.0061964
0.0132005
0.0125449
-0.00665101
-0.00918631
-0.00980725
-0.0102162
-0.00971728
-0.00716258
-0.00170557
0.00655615
0.0138854
0.0125473
-0.00427426
-0.0075264
-0.00854782
-0.00945221
-0.00942635
-0.00715551
-0.00179645
0.00668388
0.0142049
0.0125958
-0.00292314
-0.00655344
-0.00780504
-0.00898523
-0.00921548
-0.00713698
-0.00183085
0.00671432
0.0143057
0.012624
-0.00292328
-0.00655356
-0.00780514
-0.00898532
-0.00921555
-0.00713704
-0.00183089
0.00671429
0.0143057
0.012624
-0.00427468
-0.0075268
-0.00854815
-0.00945249
-0.00942655
-0.00715568
-0.00179657
0.00668379
0.0142048
0.0125957
-0.00665173
-0.00918697
-0.00980781
-0.0102166
-0.00971761
-0.00716283
-0.00170574
0.00655603
0.0138853
0.0125472
-0.00935454
-0.0109441
-0.0111406
-0.0110167
-0.00997508
-0.00709332
-0.00162353
0.00619624
0.0132004
0.0125448
-0.0108181
-0.0114718
-0.0115602
-0.0114343
-0.0104588
-0.00770018
-0.0025315
0.00473396
0.01157
0.0127713
-0.020631
-0.0206987
-0.0205152
-0.0205253
-0.0197893
-0.0167882
-0.00987474
0.00147556
0.0143265
0.0209918
-0.0189266
-0.0200726
-0.020081
-0.0202218
-0.0196832
-0.01696
-0.0102295
0.00164402
0.0151477
0.0213443
-0.0159557
-0.0181908
-0.0188767
-0.019958
-0.0204847
-0.0187188
-0.0124899
-9.35023e-05
0.0145012
0.0213545
-0.0134077
-0.0164412
-0.017721
-0.0195971
-0.0209645
-0.0199267
-0.0140643
-0.00141759
0.0138249
0.0212661
-0.011983
-0.0154295
-0.0170377
-0.0193312
-0.0211135
-0.0203896
-0.0147642
-0.0020581
0.0134507
0.0211876
-0.0119831
-0.0154296
-0.0170378
-0.0193312
-0.0211136
-0.0203896
-0.0147642
-0.00205814
0.0134506
0.0211876
-0.0134081
-0.0164415
-0.0177213
-0.0195973
-0.0209646
-0.0199268
-0.0140644
-0.00141768
0.0138248
0.021266
-0.0159562
-0.0181913
-0.0188771
-0.0199583
-0.0204849
-0.0187189
-0.01249
-9.36065e-05
0.0145011
0.0213544
-0.0189273
-0.0200732
-0.0200816
-0.0202222
-0.0196835
-0.0169603
-0.0102296
0.0016439
0.0151476
0.0213442
-0.0206318
-0.0206995
-0.0205158
-0.0205258
-0.0197897
-0.0167885
-0.0098749
0.00147546
0.0143264
0.0209917
-0.0349676
-0.0327091
-0.0312558
-0.0308536
-0.0302081
-0.0270582
-0.0184949
-0.00186511
0.0200928
0.0388302
-0.0328234
-0.0319351
-0.0309096
-0.0310098
-0.0311256
-0.0291278
-0.0218257
-0.00538448
0.0177429
0.0389378
-0.0295654
-0.0298617
-0.0298129
-0.0313469
-0.0331994
-0.0330179
-0.0270459
-0.0102978
0.0146621
0.0387774
-0.0269035
-0.0280119
-0.0287298
-0.031342
-0.0344014
-0.0353761
-0.0301882
-0.0132624
0.0127408
0.0386375
-0.0254556
-0.0269724
-0.028095
-0.0312355
-0.0348452
-0.0363211
-0.0314808
-0.014514
0.0119075
0.0385551
-0.0254557
-0.0269724
-0.0280951
-0.0312355
-0.0348452
-0.0363211
-0.0314809
-0.014514
0.0119075
0.0385551
-0.0269038
-0.0280121
-0.0287299
-0.0313422
-0.0344015
-0.0353762
-0.0301882
-0.0132624
0.0127407
0.0386374
-0.0295658
-0.029862
-0.0298132
-0.0313471
-0.0331996
-0.0330181
-0.027046
-0.0102979
0.014662
0.0387773
-0.0328239
-0.0319355
-0.03091
-0.0310101
-0.0311259
-0.029128
-0.0218258
-0.00538457
0.0177428
0.0389377
-0.0349682
-0.0327096
-0.0312563
-0.030854
-0.0302084
-0.0270584
-0.018495
-0.00186518
0.0200927
0.0388302
-0.0576245
-0.0470617
-0.0422821
-0.0402097
-0.0390996
-0.0355885
-0.025717
-0.00317072
0.0302496
0.0731658
-0.0543592
-0.0455911
-0.041677
-0.0408892
-0.041368
-0.0401039
-0.0331776
-0.0121747
0.0224783
0.07363
-0.0501966
-0.0426629
-0.0399342
-0.0411418
-0.0440087
-0.0451849
-0.0403451
-0.0192474
0.0177623
0.0750791
-0.0471027
-0.0403272
-0.0384258
-0.0409235
-0.0452789
-0.0478273
-0.0440527
-0.0226454
0.0157827
0.0764428
-0.0455155
-0.0391044
-0.0376227
-0.0407103
-0.0456909
-0.0487779
-0.0454449
-0.0238861
0.015152
0.0771034
-0.0455156
-0.0391045
-0.0376228
-0.0407103
-0.0456909
-0.048778
-0.0454449
-0.0238861
0.015152
0.0771034
-0.0471029
-0.0403273
-0.0384259
-0.0409236
-0.045279
-0.0478274
-0.0440528
-0.0226454
0.0157827
0.0764428
-0.0501968
-0.0426632
-0.0399344
-0.041142
-0.0440089
-0.045185
-0.0403452
-0.0192474
0.0177623
0.0750791
-0.0543595
-0.0455914
-0.0416772
-0.0408894
-0.0413681
-0.040104
-0.0331777
-0.0121748
0.0224782
0.0736299
-0.0576249
-0.047062
-0.0422824
-0.0402099
-0.0390998
-0.0355886
-0.025717
-0.00317076
0.0302496
0.0731658
-0.0891242
-0.0612815
-0.0520215
-0.0464069
-0.0436785
-0.0391016
-0.0264102
0.00463193
0.0516244
0.150857
-0.0814529
-0.0573027
-0.050594
-0.0474059
-0.0470557
-0.0452187
-0.0362484
-0.00615091
0.0452607
0.16251
-0.0750388
-0.052467
-0.0473204
-0.0466667
-0.0492526
-0.0500697
-0.0431657
-0.0114352
0.0463267
0.171586
-0.0710381
-0.0491623
-0.0449096
-0.045781
-0.0500658
-0.0523471
-0.0462635
-0.0132394
0.0476419
0.177304
-0.0691897
-0.0475808
-0.0437491
-0.0452937
-0.0502808
-0.0531432
-0.0473475
-0.0138038
0.0483657
0.17979
-0.0691898
-0.0475809
-0.0437491
-0.0452938
-0.0502808
-0.0531432
-0.0473476
-0.0138038
0.0483657
0.17979
-0.0710383
-0.0491625
-0.0449097
-0.0457811
-0.0500659
-0.0523472
-0.0462635
-0.0132394
0.0476419
0.177304
-0.075039
-0.0524672
-0.0473206
-0.0466668
-0.0492527
-0.0500698
-0.0431657
-0.0114352
0.0463267
0.171586
-0.0814532
-0.057303
-0.0505942
-0.047406
-0.0470559
-0.0452187
-0.0362485
-0.00615093
0.0452607
0.16251
-0.0891245
-0.0612818
-0.0520217
-0.046407
-0.0436786
-0.0391017
-0.0264102
0.00463193
0.0516244
0.150857
-0.199354
-0.0739318
-0.0489249
-0.0404726
-0.0361896
-0.0294298
-0.0125083
0.0327438
0.119002
0.324644
-0.187041
-0.0611746
-0.041092
-0.0370733
-0.0364648
-0.0330406
-0.0185133
0.0295776
0.129518
0.359292
-0.178121
-0.0522167
-0.0344069
-0.0334832
-0.036075
-0.0350325
-0.0214863
0.0297033
0.138854
0.380173
-0.172966
-0.0471429
-0.0303581
-0.0311596
-0.035584
-0.0358533
-0.0226298
0.0301983
0.143487
0.390213
-0.170701
-0.0449604
-0.0286033
-0.0301313
-0.0353265
-0.0361534
-0.0230622
0.030416
0.145255
0.39404
-0.170701
-0.0449604
-0.0286033
-0.0301313
-0.0353265
-0.0361535
-0.0230622
0.030416
0.145255
0.39404
-0.172966
-0.047143
-0.0303582
-0.0311597
-0.035584
-0.0358534
-0.0226298
0.0301983
0.143487
0.390213
-0.178121
-0.0522169
-0.034407
-0.0334833
-0.0360751
-0.0350326
-0.0214864
0.0297033
0.138854
0.380173
-0.187041
-0.0611748
-0.0410921
-0.0370734
-0.0364649
-0.0330407
-0.0185133
0.0295776
0.129518
0.359292
-0.199354
-0.073932
-0.0489251
-0.0404727
-0.0361897
-0.0294298
-0.0125083
0.0327438
0.119002
0.324644
)
;

boundaryField
{
    top
    {
        type            zeroGradient;
    }
    others
    {
        type            zeroGradient;
    }
}


// ************************************************************************* //
