/*--------------------------------*- C++ -*----------------------------------*\
  =========                 |
  \\      /  F ield         | OpenFOAM: The Open Source CFD Toolbox
   \\    /   O peration     | Website:  https://openfoam.org
    \\  /    A nd           | Version:  9
     \\/     M anipulation  |
\*---------------------------------------------------------------------------*/
FoamFile
{
    format      ascii;
    class       surfaceScalarField;
    location    "0.66";
    object      phi;
}
// * * * * * * * * * * * * * * * * * * * * * * * * * * * * * * * * * * * * * //

dimensions      [0 3 -1 0 0 0 0];

internalField   nonuniform List<scalar> 
2700
(
-5.9482e-08
-1.05299e-07
1.64842e-07
-3.03926e-07
-1.17154e-07
3.61597e-07
-6.27489e-07
-1.1768e-07
4.41242e-07
-9.45909e-07
-1.3902e-07
4.5744e-07
-1.17104e-06
-1.91406e-07
4.16536e-07
-1.20476e-06
-2.69226e-07
3.02953e-07
-9.80558e-07
-3.45066e-07
1.20859e-07
-5.40686e-07
-3.69273e-07
-7.05995e-08
-1.03781e-07
-2.9527e-07
-1.41635e-07
-9.76289e-08
-6.15246e-09
-1.58893e-07
-2.28613e-07
2.82206e-07
-6.86099e-07
-3.03074e-07
7.13125e-07
-1.3529e-06
-3.24067e-07
8.73183e-07
-1.97826e-06
-3.65195e-07
8.5154e-07
-2.39127e-06
-4.48405e-07
6.70007e-07
-2.4168e-06
-5.62188e-07
3.18491e-07
-1.94553e-06
-6.59813e-07
-1.56518e-07
-1.07776e-06
-6.68005e-07
-5.69045e-07
-2.34567e-07
-5.2932e-07
-6.0914e-07
-2.14325e-07
-1.17871e-07
-2.3616e-07
-2.49214e-07
2.56761e-07
-9.55093e-07
-3.54209e-07
7.70069e-07
-1.84179e-06
-3.86993e-07
9.49622e-07
-2.65097e-06
-4.29411e-07
8.73397e-07
-3.15824e-06
-5.06065e-07
5.64933e-07
-3.14429e-06
-6.06434e-07
3.02958e-08
-2.47903e-06
-6.79069e-07
-6.46004e-07
-1.32168e-06
-6.67597e-07
-1.15776e-06
-2.50918e-07
-5.27517e-07
-1.07256e-06
-2.32195e-07
-2.33048e-07
-2.88436e-07
-1.57868e-07
1.97089e-07
-1.13344e-06
-2.31166e-07
7.21964e-07
-2.16136e-06
-2.54715e-07
8.95644e-07
-3.08299e-06
-2.80636e-07
7.7285e-07
-3.63902e-06
-3.24309e-07
3.74271e-07
-3.5725e-06
-3.78721e-07
-2.94227e-07
-2.76347e-06
-4.15852e-07
-1.07225e-06
-1.41555e-06
-4.02849e-07
-1.61267e-06
-2.2333e-07
-3.18238e-07
-1.4015e-06
-1.45721e-07
-3.09804e-07
-3.15308e-07
1.47978e-12
1.57439e-07
-1.22339e-06
1.33664e-12
6.76911e-07
-2.32092e-06
1.03054e-12
8.42822e-07
-3.29576e-06
6.85261e-13
6.94203e-07
-3.87009e-06
5.4035e-13
2.50018e-07
-3.7725e-06
4.06644e-13
-4.76311e-07
-2.88538e-06
2.91357e-13
-1.30297e-06
-1.44309e-06
2.48444e-13
-1.84514e-06
-1.99615e-07
2.46303e-13
-1.56172e-06
2.2672e-13
-3.45337e-07
-3.15308e-07
1.57871e-07
1.57439e-07
-1.22339e-06
2.31169e-07
6.76911e-07
-2.32092e-06
2.54717e-07
8.42821e-07
-3.29576e-06
2.80637e-07
6.94203e-07
-3.87009e-06
3.2431e-07
2.50018e-07
-3.7725e-06
3.78722e-07
-4.76311e-07
-2.88538e-06
4.15853e-07
-1.30297e-06
-1.44309e-06
4.0285e-07
-1.84514e-06
-1.99615e-07
3.18239e-07
-1.56172e-06
1.45722e-07
-3.45337e-07
-2.88436e-07
2.49218e-07
1.97089e-07
-1.13344e-06
3.54212e-07
7.21963e-07
-2.16136e-06
3.86995e-07
8.95644e-07
-3.08299e-06
4.29413e-07
7.7285e-07
-3.63902e-06
5.06067e-07
3.74271e-07
-3.5725e-06
6.06435e-07
-2.94227e-07
-2.76347e-06
6.7907e-07
-1.07225e-06
-1.41555e-06
6.67598e-07
-1.61267e-06
-2.2333e-07
5.27517e-07
-1.4015e-06
2.32196e-07
-3.09804e-07
-2.36161e-07
2.28619e-07
2.5676e-07
-9.55095e-07
3.03078e-07
7.70068e-07
-1.84179e-06
3.24069e-07
9.49622e-07
-2.65097e-06
3.65196e-07
8.73397e-07
-3.15824e-06
4.48406e-07
5.64933e-07
-3.14429e-06
5.62189e-07
3.02956e-08
-2.47903e-06
6.59813e-07
-6.46004e-07
-1.32168e-06
6.68005e-07
-1.15776e-06
-2.50918e-07
5.2932e-07
-1.07256e-06
2.14325e-07
-2.33048e-07
-1.58899e-07
1.05317e-07
2.82201e-07
-6.86103e-07
1.17161e-07
7.13122e-07
-1.3529e-06
1.17682e-07
8.73182e-07
-1.97826e-06
1.39021e-07
8.51539e-07
-2.39127e-06
1.91407e-07
6.70007e-07
-2.4168e-06
2.69227e-07
3.18491e-07
-1.94553e-06
3.45066e-07
-1.56518e-07
-1.07776e-06
3.69273e-07
-5.69045e-07
-2.34567e-07
2.9527e-07
-6.0914e-07
9.76292e-08
-1.17871e-07
-5.95038e-08
1.64821e-07
-3.03934e-07
3.61591e-07
-6.27493e-07
4.4124e-07
-9.4591e-07
4.57439e-07
-1.17104e-06
4.16536e-07
-1.20477e-06
3.02952e-07
-9.80558e-07
1.20859e-07
-5.40686e-07
-7.05996e-08
-1.03781e-07
-1.41635e-07
-6.15246e-09
-2.19257e-07
-2.7597e-07
6.60068e-07
-7.19995e-07
-3.67486e-07
1.22982e-06
-1.32275e-06
-3.83091e-07
1.42709e-06
-1.89649e-06
-3.92401e-07
1.42358e-06
-2.29728e-06
-4.24261e-07
1.24159e-06
-2.36496e-06
-4.80611e-07
8.51239e-07
-1.98403e-06
-5.343e-07
2.7423e-07
-1.19489e-06
-5.27092e-07
-3.3265e-07
-3.31359e-07
-3.91559e-07
-6.13604e-07
-8.45677e-08
-2.52944e-07
-5.97818e-07
-5.0266e-07
1.10671e-06
-1.81094e-06
-7.28716e-07
2.28748e-06
-3.20274e-06
-7.74609e-07
2.6565e-06
-4.44666e-06
-7.92405e-07
2.49547e-06
-5.23306e-06
-8.39589e-07
1.87173e-06
-5.26595e-06
-9.1605e-07
7.86819e-07
-4.36211e-06
-9.80342e-07
-6.14321e-07
-2.65163e-06
-9.38708e-07
-1.86791e-06
-8.19121e-07
-7.09063e-07
-2.12414e-06
-2.31609e-07
-7.89951e-07
-8.85309e-07
-5.10662e-07
1.15007e-06
-2.61179e-06
-7.73615e-07
2.54145e-06
-4.53335e-06
-8.3083e-07
2.9274e-06
-6.1818e-06
-8.47904e-07
2.57735e-06
-7.14339e-06
-8.86784e-07
1.57371e-06
-7.07404e-06
-9.48109e-07
-6.99147e-09
-5.75608e-06
-9.80729e-07
-1.96358e-06
-3.43347e-06
-9.20447e-07
-3.49863e-06
-1.03343e-06
-7.03077e-07
-3.47859e-06
-2.70385e-07
-1.2277e-06
-1.07419e-06
-3.13542e-07
1.07416e-06
-3.13952e-06
-4.85176e-07
2.49886e-06
-5.39595e-06
-5.23461e-07
2.8447e-06
-7.2775e-06
-5.32768e-07
2.33926e-06
-8.31214e-06
-5.51798e-07
1.07393e-06
-8.12046e-06
-5.80967e-07
-8.53047e-07
-6.51002e-06
-5.89947e-07
-3.07348e-06
-3.80535e-06
-5.47494e-07
-4.69029e-06
-1.09804e-06
-4.21436e-07
-4.39045e-06
-1.74549e-07
-1.50368e-06
-1.16747e-06
1.35712e-12
1.01136e-06
-3.40134e-06
1.12763e-12
2.42561e-06
-5.81997e-06
8.16525e-13
2.73799e-06
-7.80655e-06
5.56109e-13
2.14801e-06
-8.86291e-06
4.60595e-13
7.54579e-07
-8.59493e-06
3.65906e-13
-1.32526e-06
-6.83308e-06
2.82638e-13
-3.65477e-06
-3.94716e-06
2.51908e-13
-5.27855e-06
-1.10905e-06
2.54174e-13
-4.82126e-06
2.24756e-13
-1.62894e-06
-1.16747e-06
3.13545e-07
1.01136e-06
-3.40134e-06
4.85179e-07
2.42561e-06
-5.81997e-06
5.23463e-07
2.73799e-06
-7.80655e-06
5.32769e-07
2.14801e-06
-8.86291e-06
5.51799e-07
7.54579e-07
-8.59493e-06
5.80968e-07
-1.32526e-06
-6.83308e-06
5.89947e-07
-3.65477e-06
-3.94716e-06
5.47495e-07
-5.27855e-06
-1.10905e-06
4.21437e-07
-4.82126e-06
1.74549e-07
-1.62894e-06
-1.07419e-06
5.10665e-07
1.07416e-06
-3.13952e-06
7.73618e-07
2.49886e-06
-5.39595e-06
8.30831e-07
2.8447e-06
-7.2775e-06
8.47905e-07
2.33926e-06
-8.31214e-06
8.86785e-07
1.07393e-06
-8.12046e-06
9.4811e-07
-8.53047e-07
-6.51002e-06
9.8073e-07
-3.07348e-06
-3.80535e-06
9.20448e-07
-4.69029e-06
-1.09804e-06
7.03078e-07
-4.39045e-06
2.70385e-07
-1.50368e-06
-8.8531e-07
5.02665e-07
1.15007e-06
-2.61179e-06
7.28719e-07
2.54145e-06
-4.53335e-06
7.74611e-07
2.9274e-06
-6.1818e-06
7.92406e-07
2.57735e-06
-7.14339e-06
8.3959e-07
1.57371e-06
-7.07404e-06
9.16051e-07
-6.99168e-09
-5.75608e-06
9.80342e-07
-1.96358e-06
-3.43347e-06
9.38708e-07
-3.49863e-06
-1.03343e-06
7.09064e-07
-3.47859e-06
2.31609e-07
-1.2277e-06
-5.9782e-07
2.75976e-07
1.10671e-06
-1.81094e-06
3.67489e-07
2.28748e-06
-3.20274e-06
3.83092e-07
2.6565e-06
-4.44667e-06
3.92402e-07
2.49547e-06
-5.23306e-06
4.24261e-07
1.87173e-06
-5.26595e-06
4.80612e-07
7.86819e-07
-4.36211e-06
5.343e-07
-6.14321e-07
-2.65163e-06
5.27092e-07
-1.86791e-06
-8.19121e-07
3.91559e-07
-2.12414e-06
8.45681e-08
-7.89951e-07
-2.19263e-07
6.60061e-07
-7.19999e-07
1.22982e-06
-1.32275e-06
1.42709e-06
-1.89649e-06
1.42358e-06
-2.29729e-06
1.24159e-06
-2.36496e-06
8.51238e-07
-1.98403e-06
2.7423e-07
-1.19489e-06
-3.32651e-07
-3.3136e-07
-6.13605e-07
-2.52944e-07
-3.32047e-07
-4.22156e-07
1.41427e-06
-1.00342e-06
-5.65746e-07
2.46694e-06
-1.78601e-06
-5.69145e-07
2.77882e-06
-2.54726e-06
-5.30495e-07
2.71533e-06
-3.13496e-06
-5.01205e-07
2.3305e-06
-3.34659e-06
-5.03987e-07
1.56686e-06
-2.97982e-06
-5.27065e-07
4.34527e-07
-1.97255e-06
-5.22436e-07
-8.17491e-07
-6.71209e-07
-3.93369e-07
-1.52157e-06
-4.00191e-08
-8.84134e-07
-9.5104e-07
-7.32362e-07
2.36796e-06
-2.68325e-06
-1.05449e-06
4.50844e-06
-4.59767e-06
-1.06792e-06
5.06969e-06
-6.31111e-06
-9.85223e-07
4.66364e-06
-7.47164e-06
-9.05867e-07
3.43692e-06
-7.70539e-06
-8.66506e-07
1.3831e-06
-6.69025e-06
-8.52316e-07
-1.30422e-06
-4.40284e-06
-8.09206e-07
-3.86854e-06
-1.57988e-06
-6.23839e-07
-4.71664e-06
-1.55041e-07
-2.25481e-06
-1.43581e-06
-7.22369e-07
2.57589e-06
-3.96098e-06
-1.07974e-06
5.09187e-06
-6.65202e-06
-1.09635e-06
5.64687e-06
-8.93242e-06
-1.00083e-06
4.87335e-06
-1.03321e-05
-8.97149e-07
2.96464e-06
-1.04176e-05
-8.20192e-07
3.22249e-08
-8.8625e-06
-7.64689e-07
-3.6063e-06
-5.72864e-06
-7.05037e-07
-6.73665e-06
-2.01999e-06
-5.58232e-07
-7.25285e-06
-1.90449e-07
-3.21228e-06
-1.75817e-06
-4.3601e-07
2.54597e-06
-4.80692e-06
-6.63742e-07
5.13161e-06
-7.97945e-06
-6.74048e-07
5.59493e-06
-1.0565e-05
-6.10053e-07
4.53403e-06
-1.20319e-05
-5.36343e-07
2.18001e-06
-1.19392e-05
-4.74036e-07
-1.29192e-06
-1.00015e-05
-4.26105e-07
-5.34974e-06
-6.36391e-06
-3.8657e-07
-8.64633e-06
-2.19258e-06
-3.13242e-07
-8.80677e-06
-1.23516e-07
-3.7632e-06
-1.91721e-06
1.06491e-12
2.49256e-06
-5.22397e-06
8.57384e-13
5.06863e-06
-8.62394e-06
5.89041e-13
5.46391e-06
-1.13375e-05
3.89193e-13
4.25149e-06
-1.28074e-05
3.38109e-13
1.68819e-06
-1.26027e-05
2.80206e-13
-2.004e-06
-1.04719e-05
2.29906e-13
-6.21172e-06
-6.60753e-06
2.12758e-13
-9.52946e-06
-2.24685e-06
1.97716e-13
-9.49519e-06
1.7889e-13
-3.9993e-06
-1.91721e-06
4.36012e-07
2.49256e-06
-5.22397e-06
6.63744e-07
5.06863e-06
-8.62394e-06
6.7405e-07
5.46391e-06
-1.13375e-05
6.10054e-07
4.25149e-06
-1.28074e-05
5.36344e-07
1.68819e-06
-1.26027e-05
4.74037e-07
-2.004e-06
-1.04719e-05
4.26105e-07
-6.21172e-06
-6.60753e-06
3.8657e-07
-9.52946e-06
-2.24685e-06
3.13242e-07
-9.49519e-06
1.23516e-07
-3.9993e-06
-1.75817e-06
7.22371e-07
2.54597e-06
-4.80692e-06
1.07974e-06
5.13161e-06
-7.97945e-06
1.09635e-06
5.59493e-06
-1.0565e-05
1.00083e-06
4.53403e-06
-1.20319e-05
8.9715e-07
2.18001e-06
-1.19392e-05
8.20193e-07
-1.29192e-06
-1.00015e-05
7.64689e-07
-5.34974e-06
-6.36391e-06
7.05038e-07
-8.64633e-06
-2.19258e-06
5.58232e-07
-8.80677e-06
1.90449e-07
-3.7632e-06
-1.43581e-06
7.32364e-07
2.57589e-06
-3.96098e-06
1.05449e-06
5.09187e-06
-6.65202e-06
1.06792e-06
5.64687e-06
-8.93242e-06
9.85224e-07
4.87335e-06
-1.03321e-05
9.05868e-07
2.96463e-06
-1.04176e-05
8.66506e-07
3.22247e-08
-8.8625e-06
8.52316e-07
-3.6063e-06
-5.72864e-06
8.09206e-07
-6.73665e-06
-2.01999e-06
6.2384e-07
-7.25285e-06
1.55041e-07
-3.21228e-06
-9.5104e-07
4.22158e-07
2.36796e-06
-2.68326e-06
5.65747e-07
4.50844e-06
-4.59767e-06
5.69146e-07
5.06968e-06
-6.31111e-06
5.30496e-07
4.66364e-06
-7.47164e-06
5.01206e-07
3.43692e-06
-7.7054e-06
5.03987e-07
1.3831e-06
-6.69025e-06
5.27066e-07
-1.30422e-06
-4.40284e-06
5.22436e-07
-3.86854e-06
-1.57988e-06
3.93369e-07
-4.71664e-06
4.00193e-08
-2.25481e-06
-3.32048e-07
1.41427e-06
-1.00342e-06
2.46694e-06
-1.78601e-06
2.77882e-06
-2.54726e-06
2.71532e-06
-3.13496e-06
2.3305e-06
-3.34659e-06
1.56686e-06
-2.97982e-06
4.34527e-07
-1.97255e-06
-8.17491e-07
-6.71209e-07
-1.52157e-06
-8.84134e-07
-4.15924e-07
-5.51208e-07
2.3814e-06
-1.20261e-06
-7.18207e-07
3.97184e-06
-2.11207e-06
-6.69775e-07
4.35805e-06
-3.05161e-06
-5.32254e-07
4.18713e-06
-3.90002e-06
-3.86817e-07
3.56572e-06
-4.42228e-06
-2.90336e-07
2.37946e-06
-4.27822e-06
-2.6882e-07
5.59281e-07
-3.17071e-06
-3.1641e-07
-1.60859e-06
-1.30587e-06
-2.98959e-07
-3.08745e-06
-2.76714e-10
-2.18972e-06
-1.2298e-06
-9.32307e-07
3.97885e-06
-3.35509e-06
-1.2957e-06
7.21123e-06
-5.66928e-06
-1.19952e-06
7.91361e-06
-7.81166e-06
-9.12812e-07
7.18659e-06
-9.45995e-06
-5.90018e-07
5.28841e-06
-1.01848e-05
-3.3771e-07
2.15537e-06
-9.44485e-06
-2.19542e-07
-2.0935e-06
-6.82767e-06
-2.64821e-07
-6.53731e-06
-2.83628e-06
-3.11931e-07
-8.69506e-06
-5.08989e-08
-5.04046e-06
-1.87523e-06
-9.02774e-07
4.42158e-06
-5.01636e-06
-1.29568e-06
8.23299e-06
-8.29122e-06
-1.18911e-06
8.91132e-06
-1.11128e-05
-8.69479e-07
7.65155e-06
-1.30483e-05
-4.98771e-07
4.80894e-06
-1.36116e-05
-1.8593e-07
4.437e-07
-1.22895e-05
-2.71781e-08
-5.12076e-06
-8.70268e-06
-6.81174e-08
-1.05201e-05
-3.56159e-06
-1.77359e-07
-1.25285e-05
-6.83813e-08
-6.75639e-06
-2.30369e-06
-5.38388e-07
4.48528e-06
-6.10717e-06
-7.84585e-07
8.424e-06
-9.95447e-06
-7.14663e-07
8.96778e-06
-1.31003e-05
-5.07228e-07
7.31764e-06
-1.50642e-05
-2.64235e-07
3.90929e-06
-1.54039e-05
-5.55224e-08
-1.08263e-06
-1.36588e-05
5.06577e-08
-7.17267e-06
-9.53976e-06
2.25368e-08
-1.2856e-05
-3.8543e-06
-6.52381e-08
-1.46043e-05
-4.32341e-08
-7.64264e-06
-2.51309e-06
7.46341e-13
4.46726e-06
-6.63702e-06
5.51834e-13
8.40797e-06
-1.07433e-05
3.30075e-13
8.85554e-06
-1.40072e-05
2.12457e-13
7.0081e-06
-1.59368e-05
2.31044e-13
3.35364e-06
-1.61296e-05
2.52351e-13
-1.86674e-06
-1.4181e-05
2.41954e-13
-8.10967e-06
-9.84382e-06
2.31974e-13
-1.38441e-05
-3.95456e-06
1.97636e-13
-1.54497e-05
1.80493e-13
-7.9971e-06
-2.51309e-06
5.3839e-07
4.46726e-06
-6.63702e-06
7.84586e-07
8.40797e-06
-1.07433e-05
7.14664e-07
8.85554e-06
-1.40072e-05
5.07229e-07
7.0081e-06
-1.59368e-05
2.64236e-07
3.35364e-06
-1.61296e-05
5.55229e-08
-1.86674e-06
-1.4181e-05
-5.06571e-08
-8.10967e-06
-9.84382e-06
-2.25364e-08
-1.38441e-05
-3.95456e-06
6.52384e-08
-1.54497e-05
4.32344e-08
-7.9971e-06
-2.30369e-06
9.02775e-07
4.48528e-06
-6.10717e-06
1.29568e-06
8.424e-06
-9.95447e-06
1.18911e-06
8.96778e-06
-1.31003e-05
8.6948e-07
7.31764e-06
-1.50642e-05
4.98772e-07
3.90929e-06
-1.54039e-05
1.85931e-07
-1.08263e-06
-1.36588e-05
2.71786e-08
-7.17267e-06
-9.53976e-06
6.81178e-08
-1.2856e-05
-3.8543e-06
1.77359e-07
-1.46043e-05
6.83816e-08
-7.64264e-06
-1.87523e-06
9.32309e-07
4.42158e-06
-5.01636e-06
1.2957e-06
8.23298e-06
-8.29122e-06
1.19952e-06
8.91132e-06
-1.11128e-05
9.12813e-07
7.65155e-06
-1.30483e-05
5.90019e-07
4.80894e-06
-1.36116e-05
3.37711e-07
4.437e-07
-1.22895e-05
2.19543e-07
-5.12076e-06
-8.70268e-06
2.64821e-07
-1.05201e-05
-3.56159e-06
3.11931e-07
-1.25285e-05
5.08992e-08
-6.75639e-06
-1.2298e-06
5.51209e-07
3.97885e-06
-3.3551e-06
7.18208e-07
7.21122e-06
-5.66928e-06
6.69775e-07
7.91361e-06
-7.81166e-06
5.32255e-07
7.18658e-06
-9.45995e-06
3.86818e-07
5.28841e-06
-1.01848e-05
2.90336e-07
2.15537e-06
-9.44485e-06
2.6882e-07
-2.0935e-06
-6.82767e-06
3.1641e-07
-6.53731e-06
-2.83628e-06
2.9896e-07
-8.69506e-06
2.76742e-10
-5.04046e-06
-4.15925e-07
2.3814e-06
-1.20262e-06
3.97184e-06
-2.11207e-06
4.35805e-06
-3.05161e-06
4.18712e-06
-3.90002e-06
3.56572e-06
-4.42229e-06
2.37946e-06
-4.27822e-06
5.5928e-07
-3.17071e-06
-1.60859e-06
-1.30587e-06
-3.08745e-06
-2.18972e-06
-5.09149e-07
-6.52523e-07
3.54307e-06
-1.35473e-06
-8.07941e-07
5.62537e-06
-2.31068e-06
-6.55628e-07
5.96961e-06
-3.3825e-06
-3.4992e-07
5.60887e-06
-4.54222e-06
8.48836e-09
4.71695e-06
-5.55758e-06
2.85506e-07
3.10931e-06
-5.92314e-06
3.89569e-07
5.35275e-07
-4.9571e-06
2.40181e-07
-2.81481e-06
-2.45678e-06
1.2924e-09
-5.58907e-06
9.06497e-09
-4.65557e-06
-1.47045e-06
-1.08085e-06
5.87763e-06
-3.83923e-06
-1.4226e-06
1.01947e-05
-6.36761e-06
-1.125e-06
1.09114e-05
-8.81801e-06
-5.10271e-07
9.79734e-06
-1.09847e-05
1.94382e-07
7.26918e-06
-1.24538e-05
7.74791e-07
3.13518e-06
-1.24465e-05
1.02068e-06
-2.73192e-06
-9.97729e-06
7.71975e-07
-9.53828e-06
-4.84292e-06
2.39885e-07
-1.4068e-05
1.14466e-08
-9.88576e-06
-2.21532e-06
-1.02983e-06
6.58589e-06
-5.73227e-06
-1.39482e-06
1.17222e-05
-9.3086e-06
-1.07518e-06
1.24378e-05
-1.24592e-05
-4.14158e-07
1.0706e-05
-1.48874e-05
3.38091e-07
7.09349e-06
-1.61571e-05
9.50927e-07
1.53723e-06
-1.5566e-05
1.19996e-06
-5.89109e-06
-1.21672e-05
9.29983e-07
-1.40769e-05
-5.83299e-06
3.54526e-07
-1.89774e-05
1.81067e-08
-1.2596e-05
-2.6989e-06
-6.07467e-07
6.76181e-06
-6.94309e-06
-8.33313e-07
1.21067e-05
-1.11044e-05
-6.29821e-07
1.26837e-05
-1.45244e-05
-2.11751e-07
1.05352e-05
-1.6891e-05
2.60182e-07
6.35375e-06
-1.78395e-05
6.39416e-07
1.77374e-07
-1.68312e-05
7.76687e-07
-7.7577e-06
-1.29973e-05
5.96672e-07
-1.63566e-05
-6.20337e-06
2.37777e-07
-2.12815e-05
1.47686e-08
-1.38427e-05
-2.92994e-06
4.84766e-13
6.78973e-06
-7.51532e-06
3.25389e-13
1.216e-05
-1.19238e-05
1.88168e-13
1.26342e-05
-1.54124e-05
1.72954e-13
1.02849e-05
-1.7679e-05
2.44837e-13
5.88041e-06
-1.84376e-05
2.77227e-13
-4.6868e-07
-1.72409e-05
2.89964e-13
-8.52969e-06
-1.3264e-05
2.85056e-13
-1.72243e-05
-6.33139e-06
2.3783e-13
-2.21445e-05
2.15315e-13
-1.43137e-05
-2.92994e-06
6.07468e-07
6.78973e-06
-7.51532e-06
8.33314e-07
1.216e-05
-1.19238e-05
6.29821e-07
1.26342e-05
-1.54124e-05
2.11751e-07
1.02849e-05
-1.7679e-05
-2.60182e-07
5.88041e-06
-1.84376e-05
-6.39415e-07
-4.6868e-07
-1.72409e-05
-7.76687e-07
-8.52969e-06
-1.3264e-05
-5.96672e-07
-1.72243e-05
-6.33139e-06
-2.37777e-07
-2.21445e-05
-1.47682e-08
-1.43137e-05
-2.6989e-06
1.02983e-06
6.76181e-06
-6.94309e-06
1.39482e-06
1.21067e-05
-1.11044e-05
1.07518e-06
1.26837e-05
-1.45244e-05
4.14158e-07
1.05352e-05
-1.6891e-05
-3.3809e-07
6.35375e-06
-1.78395e-05
-9.50926e-07
1.77374e-07
-1.68312e-05
-1.19996e-06
-7.7577e-06
-1.29973e-05
-9.29982e-07
-1.63566e-05
-6.20337e-06
-3.54525e-07
-2.12815e-05
-1.81064e-08
-1.38427e-05
-2.21532e-06
1.08085e-06
6.58589e-06
-5.73227e-06
1.4226e-06
1.17221e-05
-9.3086e-06
1.125e-06
1.24378e-05
-1.24592e-05
5.10271e-07
1.0706e-05
-1.48874e-05
-1.94381e-07
7.09349e-06
-1.61571e-05
-7.74791e-07
1.53723e-06
-1.5566e-05
-1.02068e-06
-5.89109e-06
-1.21672e-05
-7.71975e-07
-1.40769e-05
-5.83299e-06
-2.39885e-07
-1.89774e-05
-1.14464e-08
-1.2596e-05
-1.47045e-06
6.52524e-07
5.87763e-06
-3.83923e-06
8.07941e-07
1.01947e-05
-6.36761e-06
6.55628e-07
1.09114e-05
-8.81801e-06
3.49921e-07
9.79734e-06
-1.09847e-05
-8.48812e-09
7.26918e-06
-1.24538e-05
-2.85506e-07
3.13518e-06
-1.24465e-05
-3.89569e-07
-2.73192e-06
-9.97729e-06
-2.40181e-07
-9.53828e-06
-4.84292e-06
-1.29233e-09
-1.4068e-05
-9.06501e-09
-9.88576e-06
-5.09149e-07
3.54307e-06
-1.35474e-06
5.62537e-06
-2.31068e-06
5.96961e-06
-3.3825e-06
5.60887e-06
-4.54222e-06
4.71695e-06
-5.55758e-06
3.10931e-06
-5.92314e-06
5.35275e-07
-4.9571e-06
-2.81481e-06
-2.45678e-06
-5.58907e-06
-4.65557e-06
-7.01474e-07
-7.2839e-07
4.97294e-06
-1.52553e-06
-8.28886e-07
7.27831e-06
-2.36096e-06
-5.14149e-07
7.3192e-06
-3.41003e-06
4.14713e-08
6.61647e-06
-4.80455e-06
6.82951e-07
5.42852e-06
-6.41479e-06
1.25171e-06
3.46784e-06
-7.61165e-06
1.51761e-06
2.14531e-07
-7.23527e-06
1.2229e-06
-4.41409e-06
-4.28255e-06
4.92148e-07
-9.03394e-06
-6.43278e-08
-8.87379e-06
-1.75703e-06
-1.17522e-06
8.08149e-06
-4.15092e-06
-1.43103e-06
1.31907e-05
-6.52654e-06
-8.48278e-07
1.36211e-05
-8.90085e-06
1.94352e-07
1.20188e-05
-1.1315e-05
1.38242e-06
8.9839e-06
-1.34871e-05
2.38007e-06
4.17889e-06
-1.45645e-05
2.78303e-06
-2.91997e-06
-1.29971e-05
2.2307e-06
-1.21135e-05
-7.41538e-06
9.4801e-07
-2.01056e-05
-5.89654e-08
-1.73065e-05
-2.50976e-06
-1.09866e-06
9.01909e-06
-6.05052e-06
-1.37823e-06
1.52101e-05
-9.41255e-06
-7.78156e-07
1.57297e-05
-1.23568e-05
2.92077e-07
1.35526e-05
-1.48441e-05
1.47934e-06
9.4838e-06
-1.664e-05
2.41956e-06
3.29369e-06
-1.70805e-05
2.71081e-06
-5.37835e-06
-1.47792e-05
2.09287e-06
-1.62405e-05
-8.35697e-06
8.6957e-07
-2.53212e-05
-3.0051e-08
-2.09819e-05
-2.97491e-06
-6.4005e-07
9.27811e-06
-7.20803e-06
-8.13004e-07
1.57746e-05
-1.107e-05
-4.41646e-07
1.62092e-05
-1.41439e-05
2.157e-07
1.36856e-05
-1.63962e-05
9.27986e-07
9.15737e-06
-1.77447e-05
1.46174e-06
2.48368e-06
-1.7759e-05
1.58996e-06
-6.62252e-06
-1.52167e-05
1.18769e-06
-1.79937e-05
-8.64955e-06
4.79484e-07
-2.74586e-05
-9.01605e-09
-2.25133e-05
-3.18857e-06
3.18897e-13
9.33825e-06
-7.73212e-06
2.01099e-13
1.58906e-05
-1.17839e-05
1.13283e-13
1.62443e-05
-1.48443e-05
1.46331e-13
1.3561e-05
-1.69144e-05
2.13482e-13
8.87849e-06
-1.80159e-05
2.77597e-13
2.09452e-06
-1.78735e-05
3.11204e-13
-7.08211e-06
-1.53095e-05
2.98956e-13
-1.86006e-05
-8.756e-06
2.71564e-13
-2.82186e-05
2.69551e-13
-2.30787e-05
-3.18857e-06
6.40051e-07
9.33825e-06
-7.73212e-06
8.13004e-07
1.58906e-05
-1.17839e-05
4.41647e-07
1.62443e-05
-1.48443e-05
-2.157e-07
1.3561e-05
-1.69144e-05
-9.27985e-07
8.87849e-06
-1.80159e-05
-1.46174e-06
2.09452e-06
-1.78735e-05
-1.58996e-06
-7.08211e-06
-1.53095e-05
-1.18769e-06
-1.86006e-05
-8.756e-06
-4.79484e-07
-2.82186e-05
9.01648e-09
-2.30787e-05
-2.97491e-06
1.09866e-06
9.27811e-06
-7.20803e-06
1.37823e-06
1.57746e-05
-1.107e-05
7.78156e-07
1.62092e-05
-1.41439e-05
-2.92077e-07
1.36856e-05
-1.63962e-05
-1.47934e-06
9.15737e-06
-1.77447e-05
-2.41956e-06
2.48368e-06
-1.7759e-05
-2.71081e-06
-6.62252e-06
-1.52167e-05
-2.09287e-06
-1.79937e-05
-8.64955e-06
-8.6957e-07
-2.74586e-05
3.00513e-08
-2.25133e-05
-2.50976e-06
1.17522e-06
9.01909e-06
-6.05052e-06
1.43103e-06
1.52101e-05
-9.41255e-06
8.48278e-07
1.57297e-05
-1.23568e-05
-1.94351e-07
1.35526e-05
-1.48441e-05
-1.38242e-06
9.4838e-06
-1.664e-05
-2.38007e-06
3.29369e-06
-1.70805e-05
-2.78303e-06
-5.37835e-06
-1.47792e-05
-2.23069e-06
-1.62405e-05
-8.35697e-06
-9.4801e-07
-2.53212e-05
5.89655e-08
-2.09819e-05
-1.75703e-06
7.2839e-07
8.08149e-06
-4.15092e-06
8.28886e-07
1.31907e-05
-6.52654e-06
5.14149e-07
1.36211e-05
-8.90086e-06
-4.1471e-08
1.20188e-05
-1.1315e-05
-6.8295e-07
8.9839e-06
-1.34871e-05
-1.25171e-06
4.17889e-06
-1.45645e-05
-1.51761e-06
-2.91997e-06
-1.29971e-05
-1.2229e-06
-1.21135e-05
-7.41538e-06
-4.92148e-07
-2.01056e-05
6.43278e-08
-1.73065e-05
-7.01474e-07
4.97294e-06
-1.52553e-06
7.27831e-06
-2.36096e-06
7.3192e-06
-3.41003e-06
6.61647e-06
-4.80455e-06
5.42852e-06
-6.41479e-06
3.46784e-06
-7.61165e-06
2.14532e-07
-7.23527e-06
-4.41409e-06
-4.28255e-06
-9.03394e-06
-8.87379e-06
-1.2343e-06
-8.29929e-07
7.03717e-06
-1.85041e-06
-8.41484e-07
8.73589e-06
-2.2086e-06
-3.22575e-07
7.99997e-06
-2.84335e-06
5.16111e-07
6.73511e-06
-4.14181e-06
1.49581e-06
5.23117e-06
-6.18093e-06
2.43153e-06
3.07543e-06
-8.42058e-06
2.97066e-06
-5.1648e-07
-9.22543e-06
2.58623e-06
-6.19547e-06
-6.50364e-06
1.20341e-06
-1.29591e-05
-2.93001e-07
-1.50844e-05
-2.39072e-06
-1.26938e-06
1.09117e-05
-4.41368e-06
-1.40929e-06
1.57815e-05
-5.93338e-06
-5.15962e-07
1.53342e-05
-7.40106e-06
9.4241e-07
1.30601e-05
-9.22556e-06
2.58635e-06
9.71785e-06
-1.14609e-05
3.99971e-06
4.84609e-06
-1.35156e-05
4.6071e-06
-2.50172e-06
-1.36546e-05
3.75985e-06
-1.31481e-05
-9.28588e-06
1.57895e-06
-2.48499e-05
-4.16026e-07
-2.64694e-05
-3.03488e-06
-1.14883e-06
1.19334e-05
-6.05597e-06
-1.32345e-06
1.81454e-05
-8.32848e-06
-4.49679e-07
1.7936e-05
-1.00514e-05
9.67918e-07
1.525e-05
-1.15672e-05
2.50293e-06
1.1083e-05
-1.30506e-05
3.70417e-06
5.07263e-06
-1.42491e-05
4.04655e-06
-3.61929e-06
-1.38817e-05
3.09177e-06
-1.59398e-05
-9.46939e-06
1.16471e-06
-2.93192e-05
-3.37789e-07
-3.05295e-05
-3.39784e-06
-6.56634e-07
1.21837e-05
-6.97765e-06
-7.6836e-07
1.87993e-05
-9.58627e-06
-2.44177e-07
1.86123e-05
-1.12567e-05
5.99509e-07
1.57244e-05
-1.23498e-05
1.48453e-06
1.12688e-05
-1.323e-05
2.13005e-06
4.93806e-06
-1.39609e-05
2.243e-06
-4.08811e-06
-1.35491e-05
1.63457e-06
-1.69483e-05
-9.42893e-06
5.70751e-07
-3.09847e-05
-1.72218e-07
-3.21078e-05
-3.55395e-06
2.68687e-13
1.22356e-05
-7.36776e-06
1.69962e-13
1.8936e-05
-1.00824e-05
9.97187e-14
1.87149e-05
-1.16601e-05
1.30685e-13
1.57382e-05
-1.25039e-05
1.98036e-13
1.12068e-05
-1.31094e-05
2.79348e-13
4.83002e-06
-1.37036e-05
3.20502e-13
-4.24487e-06
-1.33812e-05
3.20958e-13
-1.72885e-05
-9.44223e-06
2.99128e-13
-3.15868e-05
2.84283e-13
-3.26932e-05
-3.55395e-06
6.56634e-07
1.22356e-05
-7.36776e-06
7.68361e-07
1.8936e-05
-1.00824e-05
2.44177e-07
1.87149e-05
-1.16601e-05
-5.99508e-07
1.57382e-05
-1.25039e-05
-1.48453e-06
1.12068e-05
-1.31094e-05
-2.13005e-06
4.83002e-06
-1.37036e-05
-2.243e-06
-4.24487e-06
-1.33812e-05
-1.63457e-06
-1.72885e-05
-9.44223e-06
-5.70751e-07
-3.15868e-05
1.72218e-07
-3.26932e-05
-3.39784e-06
1.14883e-06
1.21837e-05
-6.97765e-06
1.32345e-06
1.87993e-05
-9.58627e-06
4.49679e-07
1.86123e-05
-1.12567e-05
-9.67918e-07
1.57244e-05
-1.23498e-05
-2.50293e-06
1.12688e-05
-1.323e-05
-3.70417e-06
4.93806e-06
-1.39609e-05
-4.04655e-06
-4.08811e-06
-1.35491e-05
-3.09177e-06
-1.69483e-05
-9.42893e-06
-1.16471e-06
-3.09847e-05
3.37789e-07
-3.21078e-05
-3.03488e-06
1.26938e-06
1.19334e-05
-6.05597e-06
1.40929e-06
1.81454e-05
-8.32848e-06
5.15962e-07
1.7936e-05
-1.00514e-05
-9.4241e-07
1.525e-05
-1.15672e-05
-2.58635e-06
1.1083e-05
-1.30506e-05
-3.99971e-06
5.07263e-06
-1.42491e-05
-4.6071e-06
-3.61929e-06
-1.38817e-05
-3.75985e-06
-1.59398e-05
-9.46939e-06
-1.57895e-06
-2.93192e-05
4.16026e-07
-3.05295e-05
-2.39072e-06
8.29929e-07
1.09117e-05
-4.41368e-06
8.41484e-07
1.57815e-05
-5.93338e-06
3.22576e-07
1.53342e-05
-7.40106e-06
-5.16111e-07
1.30601e-05
-9.22556e-06
-1.49581e-06
9.71785e-06
-1.14609e-05
-2.43153e-06
4.84609e-06
-1.35156e-05
-2.97066e-06
-2.50172e-06
-1.36546e-05
-2.58623e-06
-1.31481e-05
-9.28588e-06
-1.20341e-06
-2.48499e-05
2.93001e-07
-2.64694e-05
-1.2343e-06
7.03717e-06
-1.85041e-06
8.73589e-06
-2.2086e-06
7.99997e-06
-2.84335e-06
6.73511e-06
-4.14181e-06
5.23117e-06
-6.18093e-06
3.07543e-06
-8.42058e-06
-5.1648e-07
-9.22543e-06
-6.19547e-06
-6.50364e-06
-1.29591e-05
-1.50844e-05
-2.47943e-06
-1.08596e-06
1.06026e-05
-2.24834e-06
-1.07749e-06
9.58229e-06
-1.30589e-06
-3.9437e-07
7.45189e-06
-7.50443e-07
6.67157e-07
5.5125e-06
-1.23122e-06
1.89846e-06
3.81349e-06
-3.08255e-06
3.13667e-06
1.79008e-06
-6.14684e-06
4.02689e-06
-1.47907e-06
-8.67977e-06
3.6888e-06
-7.35135e-06
-7.66885e-06
1.63046e-06
-1.56005e-05
-1.00706e-06
-2.17462e-05
-4.03667e-06
-1.53023e-06
1.53926e-05
-4.70819e-06
-1.66111e-06
1.70366e-05
-3.921e-06
-6.0116e-07
1.47538e-05
-2.9596e-06
1.04994e-06
1.1716e-05
-2.68753e-06
2.909e-06
8.43523e-06
-3.59769e-06
4.58177e-06
4.31116e-06
-5.75255e-06
5.50088e-06
-1.82086e-06
-8.05928e-06
4.61365e-06
-1.17662e-05
-7.44702e-06
1.63975e-06
-2.54714e-05
-1.37058e-06
-3.35529e-05
-4.65209e-06
-1.30396e-06
1.63593e-05
-6.03343e-06
-1.47339e-06
1.9339e-05
-5.58468e-06
-4.98241e-07
1.73843e-05
-4.41193e-06
1.00389e-06
1.41233e-05
-3.34268e-06
2.61628e-06
1.03065e-05
-3.02264e-06
3.9383e-06
5.39605e-06
-3.90474e-06
4.47059e-06
-1.7069e-06
-5.79212e-06
3.47421e-06
-1.2913e-05
-6.01359e-06
1.03844e-06
-2.84964e-05
-1.0097e-06
-3.6904e-05
-4.91519e-06
-7.18847e-07
1.65138e-05
-6.65874e-06
-8.2663e-07
1.98961e-05
-6.35286e-06
-2.61242e-07
1.80694e-05
-4.99081e-06
5.99304e-07
1.4767e-05
-3.41642e-06
1.49196e-06
1.08188e-05
-2.42714e-06
2.17534e-06
5.71175e-06
-2.76122e-06
2.37948e-06
-1.66292e-06
-4.68491e-06
1.75875e-06
-1.33092e-05
-5.51065e-06
4.743e-07
-2.95949e-05
-4.82479e-07
-3.81456e-05
-5.00761e-06
2.53598e-13
1.65243e-05
-6.88349e-06
1.70165e-13
1.99853e-05
-6.60466e-06
1.11224e-13
1.81748e-05
-5.12519e-06
1.2088e-13
1.48581e-05
-3.32021e-06
1.76253e-13
1.08938e-05
-2.08386e-06
2.58412e-13
5.76901e-06
-2.28554e-06
3.20247e-13
-1.66371e-06
-4.34322e-06
3.25447e-13
-1.34721e-05
-5.43663e-06
2.9251e-13
-3.00191e-05
2.58726e-13
-3.86123e-05
-5.00761e-06
7.18848e-07
1.65243e-05
-6.88349e-06
8.26631e-07
1.99853e-05
-6.60466e-06
2.61242e-07
1.81748e-05
-5.12519e-06
-5.99304e-07
1.48581e-05
-3.32021e-06
-1.49196e-06
1.08938e-05
-2.08386e-06
-2.17534e-06
5.76901e-06
-2.28554e-06
-2.37948e-06
-1.66371e-06
-4.34322e-06
-1.75875e-06
-1.34721e-05
-5.43663e-06
-4.743e-07
-3.00191e-05
4.8248e-07
-3.86123e-05
-4.91519e-06
1.30396e-06
1.65138e-05
-6.65874e-06
1.47339e-06
1.98961e-05
-6.35286e-06
4.98241e-07
1.80694e-05
-4.99081e-06
-1.00389e-06
1.4767e-05
-3.41642e-06
-2.61628e-06
1.08188e-05
-2.42714e-06
-3.9383e-06
5.71175e-06
-2.76122e-06
-4.47059e-06
-1.66292e-06
-4.68491e-06
-3.47421e-06
-1.33092e-05
-5.51065e-06
-1.03843e-06
-2.95949e-05
1.0097e-06
-3.81456e-05
-4.65209e-06
1.53023e-06
1.63593e-05
-6.03343e-06
1.66111e-06
1.9339e-05
-5.58468e-06
6.0116e-07
1.73843e-05
-4.41193e-06
-1.04994e-06
1.41233e-05
-3.34268e-06
-2.909e-06
1.03065e-05
-3.02264e-06
-4.58177e-06
5.39605e-06
-3.90474e-06
-5.50088e-06
-1.7069e-06
-5.79212e-06
-4.61365e-06
-1.2913e-05
-6.01359e-06
-1.63975e-06
-2.84964e-05
1.37058e-06
-3.6904e-05
-4.03667e-06
1.08596e-06
1.53926e-05
-4.70819e-06
1.07749e-06
1.70366e-05
-3.921e-06
3.9437e-07
1.47538e-05
-2.9596e-06
-6.67157e-07
1.1716e-05
-2.68753e-06
-1.89846e-06
8.43523e-06
-3.59769e-06
-3.13667e-06
4.31116e-06
-5.75255e-06
-4.02689e-06
-1.82086e-06
-8.05928e-06
-3.6888e-06
-1.17662e-05
-7.44702e-06
-1.63046e-06
-2.54714e-05
1.00706e-06
-3.35529e-05
-2.47943e-06
1.06026e-05
-2.24834e-06
9.58229e-06
-1.30589e-06
7.45189e-06
-7.50443e-07
5.5125e-06
-1.23122e-06
3.81349e-06
-3.08255e-06
1.79008e-06
-6.14684e-06
-1.47907e-06
-8.67977e-06
-7.35135e-06
-7.66885e-06
-1.56005e-05
-2.17462e-05
-2.67361e-06
-1.85773e-06
1.51339e-05
5.03277e-07
-1.984e-06
8.3894e-06
4.5356e-06
-1.19743e-06
4.617e-06
7.39768e-06
-1.45016e-07
2.79544e-06
8.58902e-06
1.09476e-06
1.52739e-06
7.66598e-06
2.38191e-06
3.3121e-07
4.35795e-06
3.55382e-06
-1.72486e-06
-6.1456e-07
3.45798e-06
-5.83683e-06
-3.47007e-06
9.13508e-07
-1.36585e-05
-2.71471e-06
-2.25016e-05
-4.77769e-06
-2.23112e-06
2.05437e-05
-7.9248e-07
-2.67356e-06
1.37409e-05
5.11851e-06
-1.76807e-06
9.41347e-06
1.02636e-05
-2.99745e-07
6.72559e-06
1.39434e-05
1.36899e-06
4.48126e-06
1.54695e-05
3.00938e-06
2.15753e-06
1.40293e-05
4.27892e-06
-1.10573e-06
9.3083e-06
3.85107e-06
-7.43831e-06
3.0889e-06
7.07153e-07
-1.90457e-05
-2.75367e-06
-3.0425e-05
-5.54279e-06
-1.70759e-06
2.13785e-05
-1.75645e-06
-2.16825e-06
1.50473e-05
4.30922e-06
-1.44416e-06
1.09947e-05
1.01327e-05
-2.43421e-07
8.24346e-06
1.49491e-05
1.10365e-06
5.75546e-06
1.79566e-05
2.35458e-06
3.04333e-06
1.79032e-05
3.20508e-06
-5.79646e-07
1.36962e-05
2.76071e-06
-7.61562e-06
5.70764e-06
4.45569e-07
-2.02463e-05
-1.72299e-06
-3.22271e-05
-5.73814e-06
-8.86727e-07
2.14311e-05
-2.09382e-06
-1.15361e-06
1.52371e-05
3.97053e-06
-7.58032e-07
1.13189e-05
1.0003e-05
-1.1303e-07
8.60405e-06
1.52334e-05
6.0052e-07
6.09158e-06
1.877e-05
1.23832e-06
3.29139e-06
1.91191e-05
1.63237e-06
-4.39334e-07
1.4932e-05
1.36343e-06
-7.72482e-06