/*--------------------------------*- C++ -*----------------------------------*\
  =========                 |
  \\      /  F ield         | OpenFOAM: The Open Source CFD Toolbox
   \\    /   O peration     | Website:  https://openfoam.org
    \\  /    A nd           | Version:  9
     \\/     M anipulation  |
\*---------------------------------------------------------------------------*/
FoamFile
{
    format      ascii;
    class       volScalarField;
    location    "0.97";
    object      p;
}
// * * * * * * * * * * * * * * * * * * * * * * * * * * * * * * * * * * * * * //

dimensions      [0 2 -2 0 0 0 0];

internalField   nonuniform List<scalar> 
1000
(
-2.26433e-08
-0.000493148
-0.000190134
0.000862399
0.00274343
0.0053274
0.00815155
0.0104497
0.0115168
0.0106566
0.000173713
-0.000739053
-0.000545466
0.000553881
0.00261961
0.00550604
0.00867463
0.0111918
0.0122001
0.0107871
0.000968323
-0.000224946
-7.11409e-05
0.00113008
0.00344731
0.0067063
0.0102583
0.0129194
0.0136753
0.0115147
0.00182929
0.000448047
0.000587407
0.00189056
0.00443779
0.00803795
0.0118563
0.0145699
0.0150603
0.012302
0.00237086
0.000900365
0.0010383
0.00240198
0.00507564
0.00885014
0.0128144
0.0155366
0.0158671
0.0127915
0.00237118
0.000900646
0.00103856
0.00240218
0.00507579
0.00885023
0.0128145
0.0155367
0.0158671
0.0127915
0.00183031
0.000448948
0.000588174
0.00189116
0.00443824
0.00803824
0.0118565
0.0145701
0.0150605
0.0123021
0.000970351
-0.000223258
-6.9851e-05
0.00113102
0.00344802
0.00670678
0.0102586
0.0129196
0.0136754
0.0115148
0.000177336
-0.000736329
-0.00054361
0.000555118
0.00262052
0.00550666
0.00867506
0.011192
0.0122004
0.0107873
6.66584e-06
-0.000489183
-0.000187787
0.000863884
0.00274447
0.00532812
0.00815206
0.01045
0.0115171
0.0106568
0.000418846
-1.72644e-05
0.000303189
0.00122154
0.00284726
0.00513534
0.00771991
0.00992924
0.0110177
0.0098696
0.000961107
2.9796e-05
0.000267214
0.00117794
0.00284114
0.00522542
0.00795518
0.0102913
0.0113396
0.00953512
0.00219966
0.000851137
0.00101627
0.0019206
0.00365183
0.00618582
0.00915038
0.0115641
0.0124043
0.00984417
0.00338019
0.00170965
0.00180879
0.0027089
0.00451287
0.00721471
0.0103514
0.0127941
0.0134235
0.0103096
0.00408473
0.00224167
0.0023033
0.00320078
0.00504603
0.00784922
0.0110726
0.0135163
0.0140204
0.0106321
0.00408502
0.00224194
0.00230354
0.00320096
0.00504616
0.00784931
0.0110726
0.0135163
0.0140205
0.0106321
0.0033811
0.00171048
0.00180952
0.00270945
0.00451328
0.00721499
0.0103516
0.0127942
0.0134236
0.0103097
0.00220136
0.000852559
0.00101742
0.00192148
0.00365249
0.00618628
0.0091507
0.0115644
0.0124045
0.00984431
0.000963787
3.19464e-05
0.000268807
0.00117909
0.002842
0.00522602
0.0079556
0.0102916
0.0113398
0.00953529
0.000422689
-1.44203e-05
0.000305128
0.00122287
0.00284822
0.00513603
0.00772039
0.00992956
0.0110179
0.00986979
-0.000932028
-0.00150305
-0.00130974
-0.000603236
0.000837483
0.00314389
0.00609609
0.00900428
0.0107699
0.00945558
-6.54507e-05
-0.00130054
-0.00119306
-0.000488227
0.000994567
0.00342343
0.00657525
0.00965636
0.0113474
0.00888191
0.00169908
-0.000136674
-0.000164728
0.000439401
0.00189297
0.00442563
0.00779402
0.0110066
0.0124981
0.00898176
0.00331299
0.00101416
0.000853238
0.00135712
0.00278906
0.00542319
0.00892653
0.0121881
0.0134769
0.00925767
0.00425425
0.00170753
0.00146812
0.00191281
0.00333333
0.00601445
0.00958102
0.012847
0.0140162
0.00947072
0.0042545
0.00170777
0.00146832
0.00191296
0.00333345
0.00601454
0.00958109
0.012847
0.0140163
0.00947075
0.00331375
0.00101487
0.000853846
0.00135759
0.00278942
0.00542345
0.00892672
0.0121883
0.013477
0.00925775
0.00170037
-0.000135542
-0.000163761
0.000440168
0.00189355
0.00442606
0.00779433
0.0110068
0.0124983
0.0089819
-6.36279e-05
-0.00129897
-0.00119179
-0.000487225
0.000995336
0.00342398
0.00657564
0.00965664
0.0113476
0.00888208
-0.000929736
-0.00150113
-0.00130828
-0.000602112
0.000838328
0.00314451
0.00609653
0.00900459
0.0107702
0.00945577
-0.00444669
-0.00514597
-0.00513482
-0.00471518
-0.00347929
-0.000987418
0.00282272
0.00732444
0.0107974
0.0098993
-0.00325817
-0.00477161
-0.00484835
-0.00441195
-0.00310113
-0.000429065
0.00368557
0.00852055
0.0119227
0.00928397
-0.000963527
-0.00325942
-0.00358215
-0.0034058
-0.00229422
0.00038617
0.00465642
0.00975547
0.0130926
0.00928002
0.00109307
-0.00180338
-0.00236792
-0.00244974
-0.00153744
0.00106871
0.00545664
0.0106829
0.0139192
0.00941199
0.00227727
-0.000939118
-0.00164619
-0.00187843
-0.00107606
0.00148969
0.00589351
0.0111508
0.014324
0.00952545
0.00227746
-0.000938937
-0.00164604
-0.00187831
-0.00107596
0.00148977
0.00589358
0.0111509
0.014324
0.00952547
0.00109367
-0.00180283
-0.00236745
-0.00244936
-0.00153714
0.00106895
0.00545682
0.0106831
0.0139193
0.00941207
-0.000962584
-0.00325856
-0.00358139
-0.00340518
-0.00229374
0.000386545
0.00465671
0.00975568
0.0130927
0.00928014
-0.00325694
-0.00477046
-0.00484736
-0.00441113
-0.0031005
-0.000428581
0.00368593
0.00852082
0.0119229
0.00928413
-0.00444522
-0.00514464
-0.00513372
-0.00471426
-0.00347858
-0.000986872
0.00282312
0.00732473
0.0107977
0.00989948
-0.0108056
-0.0114594
-0.0115494
-0.0114255
-0.0104512
-0.00769262
-0.00252313
0.00474358
0.0115808
0.0127822
-0.00934177
-0.0109318
-0.0111298
-0.0110077
-0.0099672
-0.0070855
-0.00161506
0.00620592
0.0132111
0.0125558
-0.00663737
-0.00917382
-0.00979685
-0.0102081
-0.00971054
-0.00715602
-0.00169831
0.00656485
0.0138956
0.012558
-0.00425837
-0.00751259
-0.00853683
-0.00944427
-0.00942021
-0.00714946
-0.00179003
0.0066918
0.0142146
0.0126062
-0.00290568
-0.00653862
-0.00779352
-0.00897718
-0.00920957
-0.00713167
-0.00182491
0.00672182
0.0143151
0.0126343
-0.00290554
-0.00653849
-0.00779341
-0.00897708
-0.00920948
-0.00713159
-0.00182485
0.00672187
0.0143151
0.0126344
-0.00425794
-0.00751219
-0.00853649
-0.00944396
-0.00941995
-0.00714924
-0.00178986
0.00669193
0.0142147
0.0126063
-0.00663668
-0.00917318
-0.00979628
-0.0102076
-0.00971014
-0.00715569
-0.00169804
0.00656505
0.0138958
0.0125581
-0.00934089
-0.0109309
-0.0111291
-0.0110071
-0.00996667
-0.00708508
-0.00161473
0.00620617
0.0132113
0.0125559
-0.0108046
-0.0114585
-0.0115486
-0.0114248
-0.0104506
-0.00769215
-0.00252277
0.00474385
0.011581
0.0127824
-0.0206218
-0.0206894
-0.0205071
-0.0205187
-0.0197834
-0.0167818
-0.0098671
0.0014847
0.0143371
0.021003
-0.0189175
-0.0200632
-0.0200728
-0.0202149
-0.019677
-0.0169537
-0.0102223
0.00165263
0.0151579
0.0213554
-0.0159456
-0.0181809
-0.0188685
-0.0199519
-0.0204795
-0.0187137
-0.012484
-8.60694e-05
0.0145105
0.0213653
-0.0133962
-0.0164305
-0.0177128
-0.0195914
-0.0209601
-0.0199228
-0.0140594
-0.00141108
0.0138335
0.0212766
-0.0119704
-0.0154183
-0.0170293
-0.0193255
-0.0211093
-0.0203855
-0.0147595
-0.00205202
0.013459
0.021198
-0.0119703
-0.0154182
-0.0170292
-0.0193255
-0.0211092
-0.0203854
-0.0147595
-0.00205198
0.013459
0.021198
-0.0133959
-0.0164303
-0.0177125
-0.0195912
-0.0209599
-0.0199226
-0.0140592
-0.00141096
0.0138336
0.0212767
-0.0159451
-0.0181805
-0.0188681
-0.0199515
-0.0204792
-0.0187134
-0.0124837
-8.58863e-05
0.0145107
0.0213654
-0.0189168
-0.0200626
-0.0200722
-0.0202144
-0.0196766
-0.0169534
-0.010222
0.00165285
0.015158
0.0213555
-0.020621
-0.0206886
-0.0205065
-0.0205182
-0.0197829
-0.0167815
-0.00986679
0.00148495
0.0143373
0.0210031
-0.0349601
-0.0327008
-0.0312483
-0.0308472
-0.0302021
-0.0270514
-0.018487
-0.00185525
0.0201043
0.0388427
-0.0328164
-0.0319269
-0.030902
-0.0310033
-0.0311196
-0.0291213
-0.0218182
-0.00537542
0.0177536
0.03895
-0.0295583
-0.0298534
-0.0298056
-0.0313409
-0.0331941
-0.0330121
-0.027039
-0.0102895
0.0146722
0.0387895
-0.0268958
-0.0280033
-0.0287224
-0.0313364
-0.0343963
-0.0353705
-0.0301816
-0.0132544
0.0127505
0.0386495
-0.0254473
-0.0269634
-0.0280876
-0.0312298
-0.03484
-0.0363152
-0.0314742
-0.0145061
0.011917
0.0385672
-0.0254473
-0.0269633
-0.0280875
-0.0312298
-0.0348399
-0.0363152
-0.0314741
-0.0145061
0.0119171
0.0385672
-0.0268956
-0.0280031
-0.0287222
-0.0313362
-0.0343961
-0.0353703
-0.0301814
-0.0132543
0.0127506
0.0386496
-0.0295579
-0.0298531
-0.0298053
-0.0313406
-0.0331938
-0.0330119
-0.0270388
-0.0102893
0.0146723
0.0387896
-0.032816
-0.0319264
-0.0309016
-0.0310029
-0.0311192
-0.029121
-0.0218179
-0.00537521
0.0177538
0.0389502
-0.0349596
-0.0327003
-0.0312479
-0.0308468
-0.0302017
-0.0270511
-0.0184868
-0.00185502
0.0201045
0.0388429
-0.0576172
-0.0470528
-0.0422739
-0.0402024
-0.0390925
-0.0355804
-0.0257071
-0.00315892
0.0302632
0.0731805
-0.0543526
-0.0455821
-0.0416684
-0.0408817
-0.041361
-0.040096
-0.0331682
-0.0121634
0.0224914
0.073645
-0.0501902
-0.0426536
-0.0399254
-0.0411343
-0.0440018
-0.0451768
-0.0403354
-0.0192356
0.0177757
0.0750948
-0.0470962
-0.0403176
-0.0384168
-0.0409158
-0.0452715
-0.0478185
-0.0440425
-0.022633
0.0157965
0.0764591
-0.0455088
-0.0390947
-0.0376136
-0.0407024
-0.045683
-0.0487685
-0.0454343
-0.0238734
0.0151659
0.07712
-0.0455087
-0.0390946
-0.0376135
-0.0407024
-0.045683
-0.0487684
-0.0454343
-0.0238734
0.0151659
0.07712
-0.0470961
-0.0403175
-0.0384166
-0.0409157
-0.0452714
-0.0478184
-0.0440424
-0.022633
0.0157965
0.0764592
-0.05019
-0.0426534
-0.0399252
-0.0411341
-0.0440015
-0.0451767
-0.0403353
-0.0192354
0.0177759
0.075095
-0.0543523
-0.0455818
-0.0416681
-0.0408814
-0.0413607
-0.0400958
-0.033168
-0.0121632
0.0224916
0.0736451
-0.0576168
-0.0470525
-0.0422736
-0.0402021
-0.0390922
-0.0355801
-0.0257069
-0.00315871
0.0302634
0.0731807
-0.089115
-0.0612706
-0.0520112
-0.0463979
-0.04367
-0.0390922
-0.0263984
0.00464608
0.0516409
0.150875
-0.0814439
-0.0572903
-0.0505832
-0.0473966
-0.0470474
-0.0452094
-0.0362364
-0.0061363
0.0452779
0.162528
-0.0750295
-0.0524536
-0.0473087
-0.0466569
-0.0492438
-0.0500597
-0.0431526
-0.0114192
0.0463455
0.171605
-0.0710285
-0.0491482
-0.0448972
-0.0457706
-0.0500561
-0.052336
-0.0462492
-0.0132225
0.0476614
0.177325
-0.0691798
-0.0475663
-0.0437364
-0.0452829
-0.0502705
-0.0531313
-0.0473326
-0.0137864
0.0483856
0.179811
-0.0691798
-0.0475663
-0.0437364
-0.0452829
-0.0502704
-0.0531312
-0.0473326
-0.0137863
0.0483857
0.179811
-0.0710283
-0.0491481
-0.0448971
-0.0457705
-0.050056
-0.0523359
-0.0462491
-0.0132224
0.0476615
0.177325
-0.0750293
-0.0524534
-0.0473085
-0.0466567
-0.0492436
-0.0500596
-0.0431524
-0.0114191
0.0463456
0.171605
-0.0814436
-0.0572901
-0.050583
-0.0473964
-0.0470472
-0.0452092
-0.0362362
-0.00613613
0.0452781
0.162528
-0.0891148
-0.0612703
-0.052011
-0.0463977
-0.0436698
-0.039092
-0.0263982
0.00464627
0.0516411
0.150875
-0.199343
-0.0739189
-0.0489129
-0.040462
-0.0361799
-0.0294195
-0.0124964
0.0327582
0.119019
0.324662
-0.187029
-0.0611598
-0.0410785
-0.0370622
-0.0364552
-0.0330306
-0.0185011
0.0295929
0.129536
0.359311
-0.178108
-0.0522001
-0.034392
-0.0334712
-0.0360647
-0.0350216
-0.0214729
0.0297202
0.138873
0.380193
-0.172952
-0.0471251
-0.0303423
-0.0311468
-0.0355727
-0.0358412
-0.0226151
0.0302163
0.143508
0.390234
-0.170687
-0.0449422
-0.0285872
-0.0301182
-0.0353146
-0.0361405
-0.0230467
0.0304346
0.145276
0.394062
-0.170687
-0.0449422
-0.0285871
-0.0301181
-0.0353146
-0.0361404
-0.0230466
0.0304346
0.145276
0.394062
-0.172952
-0.0471251
-0.0303422
-0.0311467
-0.0355726
-0.0358411
-0.022615
0.0302164
0.143508
0.390234
-0.178107
-0.0522
-0.0343918
-0.033471
-0.0360645
-0.0350215
-0.0214728
0.0297203
0.138873
0.380193
-0.187029
-0.0611596
-0.0410784
-0.037062
-0.036455
-0.0330304
-0.018501
0.029593
0.129536
0.359311
-0.199343
-0.0739187
-0.0489127
-0.0404619
-0.0361797
-0.0294193
-0.0124962
0.0327584
0.11902
0.324662
)
;

boundaryField
{
    top
    {
        type            zeroGradient;
    }
    others
    {
        type            zeroGradient;
    }
}


// ************************************************************************* //
