/*--------------------------------*- C++ -*----------------------------------*\
  =========                 |
  \\      /  F ield         | OpenFOAM: The Open Source CFD Toolbox
   \\    /   O peration     | Website:  https://openfoam.org
    \\  /    A nd           | Version:  9
     \\/     M anipulation  |
\*---------------------------------------------------------------------------*/
FoamFile
{
    format      ascii;
    class       surfaceScalarField;
    location    "0.97";
    object      phi;
}
// * * * * * * * * * * * * * * * * * * * * * * * * * * * * * * * * * * * * * //

dimensions      [0 3 -1 0 0 0 0];

internalField   nonuniform List<scalar> 
2700
(
-5.61941e-08
-1.10977e-07
1.6717e-07
-2.98877e-07
-1.25684e-07
3.68367e-07
-6.2427e-07
-1.26342e-07
4.51735e-07
-9.47127e-07
-1.47526e-07
4.70382e-07
-1.1765e-06
-2.00562e-07
4.29933e-07
-1.21157e-06
-2.79664e-07
3.14731e-07
-9.85113e-07
-3.56251e-07
1.29798e-07
-5.41413e-07
-3.79522e-07
-6.41779e-08
-1.02651e-07
-3.02565e-07
-1.36197e-07
-1.00232e-07
-2.41879e-09
-1.5582e-07
-2.42657e-07
2.875e-07
-6.86477e-07
-3.2435e-07
7.29323e-07
-1.36218e-06
-3.45923e-07
8.95282e-07
-1.99781e-06
-3.86232e-07
8.74338e-07
-2.41719e-06
-4.69671e-07
6.88484e-07
-2.44147e-06
-5.84554e-07
3.29176e-07
-1.96152e-06
-6.82348e-07
-1.53853e-07
-1.08271e-06
-6.88058e-07
-5.70271e-07
-2.33267e-07
-5.4383e-07
-6.08181e-07
-2.20389e-07
-1.13111e-07
-2.37086e-07
-2.65964e-07
2.60392e-07
-9.68014e-07
-3.7975e-07
7.86328e-07
-1.87169e-06
-4.13282e-07
9.71033e-07
-2.6953e-06
-4.54489e-07
8.91872e-07
-3.20773e-06
-5.3074e-07
5.73501e-07
-3.18685e-06
-6.31496e-07
2.6062e-08
-2.50463e-06
-7.03206e-07
-6.61363e-07
-1.32884e-06
-6.8853e-07
-1.17532e-06
-2.48514e-07
-5.42713e-07
-1.08144e-06
-2.38895e-07
-2.30008e-07
-2.94093e-07
-1.69054e-07
1.97183e-07
-1.15953e-06
-2.48286e-07
7.33977e-07
-2.2114e-06
-2.72337e-07
9.10919e-07
-3.14994e-06
-2.9735e-07
7.81405e-07
-3.70867e-06
-3.4046e-07
3.68444e-07
-3.62853e-06
-3.94647e-07
-3.1699e-07
-2.79514e-06
-4.30933e-07
-1.10566e-06
-1.42293e-06
-4.15742e-07
-1.645e-06
-2.19304e-07
-3.27619e-07
-1.41872e-06
-1.49957e-07
-3.08242e-07
-3.24051e-07
6.0898e-13
1.54996e-07
-1.25771e-06
3.26005e-13
6.85372e-07
-2.38314e-06
6.06808e-14
8.53094e-07
-3.37587e-06
5.13624e-14
6.95385e-07
-3.95082e-06
1.03849e-13
2.3448e-07
-3.83554e-06
2.38427e-13
-5.09922e-07
-2.9197e-06
2.16547e-13
-1.34677e-06
-1.45005e-06
1.82027e-13
-1.88539e-06
-1.94486e-07
1.90379e-13
-1.58318e-06
2.04624e-13
-3.44444e-07
-3.24051e-07
1.69055e-07
1.54996e-07
-1.25771e-06
2.48286e-07
6.85372e-07
-2.38314e-06
2.72337e-07
8.53094e-07
-3.37587e-06
2.9735e-07
6.95385e-07
-3.95081e-06
3.4046e-07
2.3448e-07
-3.83554e-06
3.94647e-07
-5.09922e-07
-2.9197e-06
4.30933e-07
-1.34677e-06
-1.45005e-06
4.15742e-07
-1.88539e-06
-1.94486e-07
3.27619e-07
-1.58318e-06
1.49958e-07
-3.44444e-07
-2.94093e-07
2.65965e-07
1.97183e-07
-1.15953e-06
3.7975e-07
7.33977e-07
-2.2114e-06
4.13283e-07
9.10919e-07
-3.14994e-06
4.5449e-07
7.81406e-07
-3.70867e-06
5.3074e-07
3.68444e-07
-3.62853e-06
6.31496e-07
-3.1699e-07
-2.79514e-06
7.03206e-07
-1.10566e-06
-1.42293e-06
6.8853e-07
-1.645e-06
-2.19304e-07
5.42714e-07
-1.41872e-06
2.38895e-07
-3.08242e-07
-2.37085e-07
2.42657e-07
2.60393e-07
-9.68013e-07
3.2435e-07
7.86329e-07
-1.87169e-06
3.45923e-07
9.71033e-07
-2.6953e-06
3.86232e-07
8.91872e-07
-3.20773e-06
4.69671e-07
5.73501e-07
-3.18685e-06
5.84555e-07
2.60621e-08
-2.50463e-06
6.82348e-07
-6.61363e-07
-1.32884e-06
6.88059e-07
-1.17532e-06
-2.48515e-07
5.4383e-07
-1.08144e-06
2.20389e-07
-2.30008e-07
-1.5582e-07
1.10976e-07
2.875e-07
-6.86477e-07
1.25683e-07
7.29324e-07
-1.36218e-06
1.26342e-07
8.95283e-07
-1.99781e-06
1.47526e-07
8.74338e-07
-2.41719e-06
2.00562e-07
6.88484e-07
-2.44147e-06
2.79664e-07
3.29176e-07
-1.96152e-06
3.5625e-07
-1.53853e-07
-1.08271e-06
3.79522e-07
-5.70271e-07
-2.33267e-07
3.02565e-07
-6.08181e-07
1.00233e-07
-1.13111e-07
-5.61935e-08
1.6717e-07
-2.98878e-07
3.68368e-07
-6.24271e-07
4.51735e-07
-9.47127e-07
4.70383e-07
-1.1765e-06
4.29933e-07
-1.21157e-06
3.14731e-07
-9.85113e-07
1.29798e-07
-5.41413e-07
-6.41779e-08
-1.02651e-07
-1.36197e-07
-2.41885e-09
-2.16864e-07
-2.89842e-07
6.73875e-07
-7.16824e-07
-3.89834e-07
1.25816e-06
-1.3236e-06
-4.04552e-07
1.46306e-06
-1.90518e-06
-4.09624e-07
1.46159e-06
-2.31321e-06
-4.38095e-07
1.27606e-06
-2.38311e-06
-4.93175e-07
8.77804e-07
-1.99812e-06
-5.46212e-07
2.91019e-07
-1.20127e-06
-5.38048e-07
-3.22979e-07
-3.31352e-07
-3.99753e-07
-6.06361e-07
-8.75364e-08
-2.46234e-07
-6.01882e-07
-5.32976e-07
1.13252e-06
-1.82963e-06
-7.76198e-07
2.34343e-06
-3.24171e-06
-8.19691e-07
2.72251e-06
-4.50441e-06
-8.27998e-07
2.55541e-06
-5.29999e-06
-8.67183e-07
1.91316e-06
-5.3276e-06
-9.39999e-07
8.03604e-07
-4.40641e-06
-1.00158e-06
-6.19677e-07
-2.67317e-06
-9.57594e-07
-1.88396e-06
-8.23052e-07
-7.23429e-07
-2.13462e-06
-2.37451e-07
-7.86248e-07
-9.04065e-07
-5.45138e-07
1.17662e-06
-2.66804e-06
-8.27152e-07
2.60126e-06
-4.6279e-06
-8.8114e-07
2.99234e-06
-6.30127e-06
-8.86971e-07
2.62422e-06
-7.26675e-06
-9.15783e-07
1.58757e-06
-7.17626e-06
-9.70703e-07
-3.37208e-08
-5.8254e-06
-1.00089e-06
-2.01292e-06
-3.46593e-06
-9.38244e-07
-3.55414e-06
-1.03941e-06
-7.1696e-07
-3.51443e-06
-2.76577e-07
-1.2303e-06
-1.10841e-06
-3.36127e-07
1.09658e-06
-3.23334e-06
-5.20071e-07
2.55183e-06
-5.54289e-06
-5.56011e-07
2.89533e-06
-7.45104e-06
-5.57721e-07
2.3603e-06
-8.47937e-06
-5.69871e-07
1.05087e-06
-8.25366e-06
-5.94857e-07
-9.18548e-07
-6.59559e-06
-6.01645e-07
-3.16297e-06
-3.84364e-06
-5.5771e-07
-4.77748e-06
-1.10443e-06
-4.29593e-07
-4.4453e-06
-1.78404e-07
-1.51085e-06
-1.21137e-06
3.75606e-13
1.03024e-06
-3.51818e-06
-3.72624e-13
2.4721e-06
-5.99802e-06
-5.3961e-13
2.77693e-06
-8.01081e-06
-3.20583e-13
2.15046e-06
-9.05413e-06
-1.2297e-13
7.07925e-07
-8.74318e-06
2.162e-14
-1.41573e-06
-6.9259e-06
3.42569e-14
-3.76571e-06
-3.98757e-06
2.60583e-14
-5.38143e-06
-1.11525e-06
6.73301e-14
-4.88509e-06
1.65017e-13
-1.6381e-06
-1.21137e-06
3.36128e-07
1.03024e-06
-3.51818e-06
5.20071e-07
2.4721e-06
-5.99802e-06
5.5601e-07
2.77693e-06
-8.01081e-06
5.5772e-07
2.15046e-06
-9.05413e-06
5.69871e-07
7.07925e-07
-8.74318e-06
5.94857e-07
-1.41573e-06
-6.9259e-06
6.01645e-07
-3.76571e-06
-3.98757e-06
5.5771e-07
-5.38143e-06
-1.11525e-06
4.29593e-07
-4.88509e-06
1.78404e-07
-1.6381e-06
-1.10841e-06
5.45139e-07
1.09658e-06
-3.23334e-06
8.27151e-07
2.55183e-06
-5.54289e-06
8.81139e-07
2.89534e-06
-7.45103e-06
8.8697e-07
2.3603e-06
-8.47937e-06
9.15783e-07
1.05087e-06
-8.25366e-06
9.70702e-07
-9.18548e-07
-6.59559e-06
1.00089e-06
-3.16297e-06
-3.84364e-06
9.38244e-07
-4.77748e-06
-1.10443e-06
7.1696e-07
-4.4453e-06
2.76578e-07
-1.51085e-06
-9.04064e-07
5.32976e-07
1.17662e-06
-2.66804e-06
7.76197e-07
2.60126e-06
-4.6279e-06
8.1969e-07
2.99234e-06
-6.30127e-06
8.27998e-07
2.62422e-06
-7.26675e-06
8.67183e-07
1.58757e-06
-7.17626e-06
9.39999e-07
-3.37208e-08
-5.8254e-06
1.00158e-06
-2.01292e-06
-3.46593e-06
9.57595e-07
-3.55414e-06
-1.03941e-06
7.23429e-07
-3.51443e-06
2.37452e-07
-1.2303e-06
-6.01881e-07
2.89841e-07
1.13252e-06
-1.82963e-06
3.89833e-07
2.34343e-06
-3.24171e-06
4.04551e-07
2.72251e-06
-4.50441e-06
4.09624e-07
2.55541e-06
-5.29999e-06
4.38095e-07
1.91316e-06
-5.3276e-06
4.93175e-07
8.03604e-07
-4.40641e-06
5.46212e-07
-6.19677e-07
-2.67317e-06
5.38048e-07
-1.88396e-06
-8.23052e-07
3.99753e-07
-2.13462e-06
8.75365e-08
-7.86248e-07
-2.16864e-07
6.73874e-07
-7.16824e-07
1.25816e-06
-1.3236e-06
1.46306e-06
-1.90518e-06
1.46159e-06
-2.31321e-06
1.27606e-06
-2.38311e-06
8.77804e-07
-1.99812e-06
2.91019e-07
-1.20127e-06
-3.22979e-07
-3.31352e-07
-6.06361e-07
-2.46234e-07
-3.29784e-07
-4.40619e-07
1.44428e-06
-9.99519e-07
-5.94324e-07
2.52222e-06
-1.78611e-06
-5.92586e-07
2.84224e-06
-2.55683e-06
-5.42945e-07
2.77525e-06
-3.1546e-06
-5.04418e-07
2.37825e-06
-3.37166e-06
-5.02943e-07
1.5978e-06
-3.00279e-06
-5.26287e-07
4.48445e-07
-1.98687e-06
-5.23705e-07
-8.15199e-07
-6.75157e-07
-3.95672e-07
-1.5224e-06
-4.05038e-08
-8.80887e-07
-9.60088e-07
-7.71493e-07
2.42348e-06
-2.71209e-06
-1.11255e-06
4.61366e-06
-4.65018e-06
-1.11428e-06
5.18228e-06
-6.38399e-06
-1.00822e-06
4.75449e-06
-7.55465e-06
-9.0918e-07
3.48858e-06
-7.78503e-06
-8.59511e-07
1.39055e-06
-6.75295e-06
-8.45198e-07
-1.33285e-06
-4.43969e-06
-8.06236e-07
-3.91469e-06
-1.59121e-06
-6.24722e-07
-4.75405e-06
-1.55655e-07
-2.26231e-06
-1.4679e-06
-7.66097e-07
2.63912e-06
-4.0445e-06
-1.14354e-06
5.20885e-06
-6.77996e-06
-1.14594e-06
5.75947e-06
-9.08295e-06
-1.02361e-06
4.94259e-06
-1.04792e-05
-8.97818e-07
2.97245e-06
-1.05452e-05
-8.10504e-07
-1.67597e-08
-8.95461e-06
-7.53002e-07
-3.69566e-06
-5.78055e-06
-6.98175e-07
-6.83626e-06
-2.03591e-06
-5.56885e-07
-7.3269e-06
-1.90824e-07
-3.23104e-06
-1.81411e-06
-4.64383e-07
2.60897e-06
-4.9444e-06
-7.04711e-07
5.24329e-06
-8.17712e-06
-7.05247e-07
5.68736e-06
-1.07812e-05
-6.23491e-07
4.5643e-06
-1.22289e-05
-5.35195e-07
2.13587e-06
-1.20955e-05
-4.65567e-07
-1.39687e-06
-1.01095e-05
-4.16909e-07
-5.48503e-06
-6.42328e-06
-3.80894e-07
-8.78099e-06
-2.21067e-06
-3.11621e-07
-8.90317e-06
-1.23642e-07
-3.7887e-06
-1.98795e-06
1.85402e-13
2.55381e-06
-5.3941e-06
-4.95747e-13
5.17354e-06
-8.86211e-06
-4.90993e-13
5.53969e-06
-1.15896e-05
-2.88427e-13
4.25444e-06
-1.30286e-05
-1.41893e-13
1.61171e-06
-1.27718e-05
-5.09125e-14
-2.13803e-06
-1.05858e-05
-4.67565e-14
-6.36862e-06
-6.66953e-06
-2.38103e-14
-9.67863e-06
-2.2657e-06
3.07751e-14
-9.60055e-06
1.62691e-13
-4.02744e-06
-1.98795e-06
4.64384e-07
2.55381e-06
-5.3941e-06
7.0471e-07
5.17354e-06
-8.86211e-06
7.05246e-07
5.53969e-06
-1.15896e-05
6.2349e-07
4.25444e-06
-1.30286e-05
5.35194e-07
1.61171e-06
-1.27718e-05
4.65567e-07
-2.13803e-06
-1.05858e-05
4.16909e-07
-6.36862e-06
-6.66953e-06
3.80894e-07
-9.67863e-06
-2.2657e-06
3.11621e-07
-9.60055e-06
1.23643e-07
-4.02744e-06
-1.81411e-06
7.66098e-07
2.60897e-06
-4.9444e-06
1.14354e-06
5.24329e-06
-8.17711e-06
1.14593e-06
5.68736e-06
-1.07812e-05
1.0236e-06
4.5643e-06
-1.22289e-05
8.97817e-07
2.13587e-06
-1.20955e-05
8.10504e-07
-1.39687e-06
-1.01095e-05
7.53002e-07
-5.48503e-06
-6.42328e-06
6.98175e-07
-8.78099e-06
-2.21067e-06
5.56885e-07
-8.90317e-06
1.90824e-07
-3.7887e-06
-1.46789e-06
7.71493e-07
2.63912e-06
-4.04449e-06
1.11255e-06
5.20885e-06
-6.77996e-06
1.11428e-06
5.75947e-06
-9.08295e-06
1.00822e-06
4.9426e-06
-1.04792e-05
9.0918e-07
2.97245e-06
-1.05452e-05
8.59511e-07
-1.67597e-08
-8.95461e-06
8.45198e-07
-3.69566e-06
-5.78055e-06
8.06236e-07
-6.83626e-06
-2.03591e-06
6.24722e-07
-7.3269e-06
1.55655e-07
-3.23104e-06
-9.60087e-07
4.40619e-07
2.42348e-06
-2.71209e-06
5.94323e-07
4.61366e-06
-4.65018e-06
5.92586e-07
5.18229e-06
-6.38399e-06
5.42945e-07
4.75449e-06
-7.55465e-06
5.04418e-07
3.48858e-06
-7.78503e-06
5.02943e-07
1.39055e-06
-6.75295e-06
5.26287e-07
-1.33285e-06
-4.43969e-06
5.23705e-07
-3.91469e-06
-1.59121e-06
3.95672e-07
-4.75405e-06
4.05039e-08
-2.26231e-06
-3.29784e-07
1.44428e-06
-9.99519e-07
2.52222e-06
-1.78611e-06
2.84224e-06
-2.55683e-06
2.77525e-06
-3.1546e-06
2.37825e-06
-3.37166e-06
1.5978e-06
-3.00279e-06
4.48444e-07
-1.98687e-06
-8.15199e-07
-6.75157e-07
-1.5224e-06
-8.80887e-07
-4.10826e-07
-5.69996e-07
2.4251e-06
-1.19155e-06
-7.44872e-07
4.04781e-06
-2.10262e-06
-6.85102e-07
4.43841e-06
-3.05261e-06
-5.29453e-07
4.2547e-06
-3.91464e-06
-3.70578e-07
3.61086e-06
-4.44743e-06
-2.69455e-07
2.40004e-06
-4.30612e-06
-2.50652e-07
5.57795e-07
-3.19164e-06
-3.05066e-07
-1.62461e-06
-1.31405e-06
-2.9418e-07
-3.10582e-06
1.40561e-09
-2.19634e-06
-1.23532e-06
-9.72016e-07
4.06082e-06
-3.37411e-06
-1.34912e-06
7.35669e-06
-5.7062e-06
-1.22823e-06
8.0575e-06
-7.86663e-06
-9.037e-07
7.28916e-06
-9.52825e-06
-5.53029e-07
5.33266e-06
-1.02571e-05
-2.91575e-07
2.14153e-06
-9.50928e-06
-1.79574e-07
-2.15174e-06
-6.87212e-06
-2.39085e-07
-6.61783e-06
-2.85377e-06
-2.99975e-07
-8.76661e-06
-4.70045e-08
-5.06767e-06
-1.90572e-06
-9.47108e-07
4.51993e-06
-5.09211e-06
-1.35362e-06
8.39973e-06
-8.4012e-06
-1.21792e-06
9.05825e-06
-1.1236e-05
-8.55482e-07
7.72921e-06
-1.31676e-05
-4.53909e-07
4.80493e-06
-1.37159e-05
-1.31541e-07
3.71451e-07
-1.23734e-05
1.86069e-08
-5.2363e-06
-8.75894e-06
-3.87908e-08
-1.0651e-05
-3.58428e-06
-1.63665e-07
-1.26379e-05
-6.4163e-08
-6.79816e-06
-2.36053e-06
-5.67098e-07
4.5895e-06
-6.23932e-06
-8.21396e-07
8.58986e-06
-1.0131e-05
-7.31844e-07
9.09296e-06
-1.32778e-05
-4.9638e-07
7.35203e-06
-1.52153e-05
-2.33643e-07
3.85303e-06
-1.55226e-05
-1.86362e-08
-1.20245e-06
-1.37481e-05
7.99646e-08
-7.32089e-06
-9.59945e-06
4.09658e-08
-1.30094e-05
-3.87942e-06
-5.65665e-08
-1.47303e-05
-4.05927e-08
-7.69169e-06
-2.58627e-06
1.82647e-13
4.57298e-06
-6.80295e-06
-2.99708e-13
8.56883e-06
-1.09574e-05
-2.72676e-13
8.96234e-06
-1.42121e-05
-1.65271e-13
7.01271e-06
-1.61008e-05
-1.29035e-13
3.26676e-06
-1.62505e-05
-1.3411e-13
-2.00691e-06
-1.42698e-05
-1.25875e-13
-8.26938e-06
-9.90397e-06
-8.04326e-14
-1.40035e-05
-3.98068e-06
3.50538e-15
-1.55804e-05
1.5405e-13
-8.04871e-06
-2.58627e-06
5.67098e-07
4.57298e-06
-6.80295e-06
8.21395e-07
8.56883e-06
-1.09574e-05
7.31843e-07
8.96234e-06
-1.42121e-05
4.9638e-07
7.01271e-06
-1.61008e-05
2.33643e-07
3.26676e-06
-1.62505e-05
1.86359e-08
-2.00691e-06
-1.42698e-05
-7.99648e-08
-8.26938e-06
-9.90397e-06
-4.09659e-08
-1.40035e-05
-3.98068e-06
5.65665e-08
-1.55804e-05
4.05929e-08
-8.04871e-06
-2.36053e-06
9.47109e-07
4.5895e-06
-6.23932e-06
1.35362e-06
8.58986e-06
-1.0131e-05
1.21792e-06
9.09296e-06
-1.32778e-05
8.55482e-07
7.35203e-06
-1.52153e-05
4.53909e-07
3.85303e-06
-1.55226e-05
1.31541e-07
-1.20245e-06
-1.37481e-05
-1.8607e-08
-7.32089e-06
-9.59945e-06
3.87908e-08
-1.30094e-05
-3.87942e-06
1.63665e-07
-1.47303e-05
6.41632e-08
-7.69169e-06
-1.90572e-06
9.72016e-07
4.51993e-06
-5.09211e-06
1.34912e-06
8.39973e-06
-8.4012e-06
1.22823e-06
9.05825e-06
-1.1236e-05
9.03699e-07
7.72921e-06
-1.31676e-05
5.53028e-07
4.80493e-06
-1.37159e-05
2.91575e-07
3.71451e-07
-1.23734e-05
1.79574e-07
-5.2363e-06
-8.75894e-06
2.39085e-07
-1.0651e-05
-3.58428e-06
2.99975e-07
-1.26379e-05
4.70047e-08
-6.79816e-06
-1.23532e-06
5.69995e-07
4.06082e-06
-3.37411e-06
7.44871e-07
7.35669e-06
-5.7062e-06
6.85102e-07
8.0575e-06
-7.86662e-06
5.29452e-07
7.28916e-06
-9.52825e-06
3.70578e-07
5.33266e-06
-1.02571e-05
2.69455e-07
2.14153e-06
-9.50928e-06
2.50652e-07
-2.15174e-06
-6.87212e-06
3.05066e-07
-6.61783e-06
-2.85377e-06
2.9418e-07
-8.76661e-06
-1.40557e-09
-5.06767e-06
-4.10826e-07
2.4251e-06
-1.19155e-06
4.04781e-06
-2.10262e-06
4.43841e-06
-3.05261e-06
4.2547e-06
-3.91464e-06
3.61086e-06
-4.44743e-06
2.40004e-06
-4.30612e-06
5.57795e-07
-3.19164e-06
-1.62461e-06
-1.31404e-06
-3.10582e-06
-2.19634e-06
-4.99227e-07
-6.66738e-07
3.59106e-06
-1.33216e-06
-8.25901e-07
5.70664e-06
-2.28584e-06
-6.57086e-07
6.04918e-06
-3.36873e-06
-3.2953e-07
5.66712e-06
-4.54521e-06
4.07069e-08
4.74663e-06
-5.57666e-06
3.21165e-07
3.11033e-06
-5.94991e-06
4.1802e-07
5.13026e-07
-4.98064e-06
2.57289e-07
-2.85117e-06
-2.46782e-06
8.20436e-09
-5.62685e-06
1.11904e-08
-4.67534e-06
-1.46394e-06
-1.11275e-06
5.97078e-06
-3.8295e-06
-1.45949e-06
1.03558e-05
-6.36325e-06
-1.1265e-06
1.10607e-05
-8.8274e-06
-4.66361e-07
9.89014e-06
-1.10123e-05
2.65285e-07
7.29293e-06
-1.2495e-05
8.4678e-07
3.0987e-06
-1.24931e-05
1.07609e-06
-2.81175e-06
-1.00166e-05
8.04343e-07
-9.64134e-06
-4.86266e-06
2.53302e-07
-1.41657e-05
1.46868e-08
-9.93382e-06
-2.22831e-06
-1.06638e-06
6.70188e-06
-5.76548e-06
-1.43505e-06
1.19125e-05
-9.35441e-06
-1.07435e-06
1.2595e-05
-1.25072e-05
-3.62565e-07
1.07782e-05
-1.49336e-05
4.17516e-07
7.07903e-06
-1.62016e-05
1.0276e-06
1.45863e-06
-1.56104e-05
1.25611e-06
-6.00753e-06
-1.22064e-05
9.60535e-07
-1.42112e-05
-5.8548e-06
3.66403e-07
-1.91026e-05
2.1243e-08
-1.26595e-05
-2.73429e-06
-6.31372e-07
6.88877e-06
-7.02176e-06
-8.58798e-07
1.23011e-05
-1.11972e-05
-6.27946e-07
1.2822e-05
-1.46003e-05
-1.76943e-07
1.05695e-05
-1.6942e-05
3.1206e-07
6.3001e-06
-1.78721e-05
6.90024e-07
6.52777e-08
-1.68631e-05
8.10682e-07
-7.88446e-06
-1.30307e-05
6.1387e-07
-1.64951e-05
-6.2255e-06
2.43986e-07
-2.14131e-05
1.65168e-08
-1.39125e-05
-2.97942e-06
2.52211e-13
6.92102e-06
-7.62125e-06
-9.03514e-14
1.23519e-05
-1.20423e-05
-1.14738e-13
1.27555e-05
-1.54995e-05
-1.33579e-13
1.0293e-05
-1.77244e-05
-1.66072e-13
5.80373e-06
-1.84604e-05
-2.09492e-13
-5.80875e-07
-1.72631e-05
-1.77371e-13
-8.65605e-06
-1.32933e-05
-1.09012e-13
-1.73594e-05
-6.35351e-06
-1.07263e-14
-2.22762e-05
1.15868e-13
-1.43857e-05
-2.97942e-06
6.31372e-07
6.92102e-06
-7.62124e-06
8.58798e-07
1.23519e-05
-1.20423e-05
6.27945e-07
1.27555e-05
-1.54995e-05
1.76942e-07
1.0293e-05
-1.77244e-05
-3.12061e-07
5.80373e-06
-1.84604e-05
-6.90024e-07
-5.80875e-07
-1.72631e-05
-8.10682e-07
-8.65605e-06
-1.32933e-05
-6.1387e-07
-1.73594e-05
-6.35351e-06
-2.43986e-07
-2.22762e-05
-1.65167e-08
-1.43857e-05
-2.73429e-06
1.06638e-06
6.88877e-06
-7.02176e-06
1.43505e-06
1.23011e-05
-1.11972e-05
1.07435e-06
1.2822e-05
-1.46003e-05
3.62564e-07
1.05695e-05
-1.6942e-05
-4.17517e-07
6.3001e-06
-1.78721e-05
-1.0276e-06
6.52779e-08
-1.68631e-05
-1.25611e-06
-7.88446e-06
-1.30307e-05
-9.60535e-07
-1.64951e-05
-6.2255e-06
-3.66403e-07
-2.14131e-05
-2.12429e-08
-1.39125e-05
-2.22831e-06
1.11275e-06
6.70188e-06
-5.76548e-06
1.45949e-06
1.19125e-05
-9.35441e-06
1.1265e-06
1.2595e-05
-1.25072e-05
4.66361e-07
1.07782e-05
-1.49336e-05
-2.65285e-07
7.07903e-06
-1.62016e-05
-8.4678e-07
1.45863e-06
-1.56104e-05
-1.07609e-06
-6.00753e-06
-1.22064e-05
-8.04343e-07
-1.42112e-05
-5.8548e-06
-2.53302e-07
-1.91026e-05
-1.46867e-08
-1.26595e-05
-1.46394e-06
6.66738e-07
5.97078e-06
-3.8295e-06
8.25901e-07
1.03558e-05
-6.36325e-06
6.57086e-07
1.10607e-05
-8.8274e-06
3.2953e-07
9.89014e-06
-1.10123e-05
-4.07069e-08
7.29293e-06
-1.2495e-05
-3.21165e-07
3.0987e-06
-1.24931e-05
-4.1802e-07
-2.81175e-06
-1.00166e-05
-2.57288e-07
-9.64134e-06
-4.86266e-06
-8.20437e-09
-1.41657e-05
-1.11903e-08
-9.93383e-06
-4.99227e-07
3.59106e-06
-1.33216e-06
5.70664e-06
-2.28584e-06
6.04918e-06
-3.36873e-06
5.66712e-06
-4.54521e-06
4.74663e-06
-5.57666e-06
3.11033e-06
-5.94991e-06
5.13026e-07
-4.98064e-06
-2.85117e-06
-2.46782e-06
-5.62685e-06
-4.67534e-06
-6.87223e-07
-7.34749e-07
5.01304e-06
-1.49139e-06
-8.35153e-07
7.34596e-06
-2.32043e-06
-5.02726e-07
7.38094e-06
-3.37971e-06
7.28431e-08
6.65356e-06
-4.79378e-06
7.24322e-07
5.43638e-06
-6.4232e-06
1.28999e-06
3.44976e-06
-7.63079e-06
1.5457e-06
1.74912e-07
-7.25573e-06
1.23774e-06
-4.46397e-06
-4.29387e-06
4.96234e-07
-9.08494e-06
-6.48538e-08
-8.90437e-06
-1.73414e-06
-1.19396e-06
8.16413e-06
-4.10316e-06
-1.44678e-06
1.33365e-05
-6.46955e-06
-8.25816e-07
1.37502e-05
-8.85352e-06
2.58598e-07
1.20884e-05
-1.12884e-05
1.46409e-06
8.98808e-06
-1.3482e-05
2.45176e-06
4.13052e-06
-1.45756e-05
2.82974e-06
-3.00219e-06
-1.30154e-05
2.25132e-06
-1.22151e-05
-7.42914e-06
9.50795e-07
-2.02065e-05
-6.08178e-08
-1.7367e-05
-2.49551e-06
-1.12231e-06
9.12574e-06
-6.02148e-06
-1.39686e-06
1.53885e-05
-9.37168e-06
-7.52593e-07
1.5872e-05
-1.23096e-05
3.63227e-07
1.36115e-05
-1.47992e-05
1.5668e-06
9.46587e-06
-1.66062e-05
2.49228e-06
3.22517e-06
-1.70636e-05
2.75215e-06
-5.47254e-06
-1.47801e-05
2.10662e-06
-1.63501e-05
-8.36666e-06
8.67927e-07
-2.54331e-05
-3.27841e-08
-2.10542e-05
-2.9748e-06
-6.56128e-07
9.39739e-06
-7.20568e-06
-8.25141e-07
1.59602e-05
-1.10496e-05
-4.24527e-07
1.63378e-05
-1.40956e-05
2.61887e-07
1.37169e-05
-1.63273e-05
9.82562e-07
9.11605e-06
-1.76792e-05
1.50227e-06
2.40725e-06
-1.77136e-05
1.61178e-06
-6.70975e-06
-1.52015e-05
1.19291e-06
-1.80934e-05
-8.65574e-06
4.76687e-07
-2.75676e-05
-1.10041e-08
-2.259e-05
-3.198e-06
3.02623e-13
9.46289e-06
-7.74675e-06
3.16436e-14
1.60755e-05
-1.17749e-05
-4.28334e-14
1.63591e-05
-1.47922e-05
-1.16688e-13
1.35722e-05
-1.68296e-05
-1.79816e-13
8.8237e-06
-1.79264e-05
-2.32025e-13
2.01819e-06
-1.78104e-05
-1.75187e-13
-7.16033e-06
-1.52855e-05
-1.18105e-13
-1.86914e-05
-8.76051e-06
-3.4706e-14
-2.83245e-05
4.75407e-14
-2.31572e-05
-3.198e-06
6.56128e-07
9.46289e-06
-7.74675e-06
8.25141e-07
1.60755e-05
-1.17749e-05
4.24527e-07
1.63591e-05
-1.47922e-05
-2.61887e-07
1.35722e-05
-1.68296e-05
-9.82562e-07
8.8237e-06
-1.79264e-05
-1.50227e-06
2.01819e-06
-1.78104e-05
-1.61178e-06
-7.16033e-06
-1.52855e-05
-1.19291e-06
-1.86914e-05
-8.76051e-06
-4.76687e-07
-2.83245e-05
1.10042e-08
-2.31572e-05
-2.9748e-06
1.12231e-06
9.39739e-06
-7.20568e-06
1.39686e-06
1.59602e-05
-1.10496e-05
7.52592e-07
1.63378e-05
-1.40956e-05
-3.63227e-07
1.37169e-05
-1.63273e-05
-1.5668e-06
9.11605e-06
-1.76792e-05
-2.49228e-06
2.40725e-06
-1.77136e-05
-2.75215e-06
-6.70975e-06
-1.52015e-05
-2.10662e-06
-1.80934e-05
-8.65574e-06
-8.67927e-07
-2.75676e-05
3.27841e-08
-2.259e-05
-2.49551e-06
1.19396e-06
9.12574e-06
-6.02148e-06
1.44678e-06
1.53885e-05
-9.37168e-06
8.25816e-07
1.5872e-05
-1.23096e-05
-2.58598e-07
1.36115e-05
-1.47992e-05
-1.46409e-06
9.46587e-06
-1.66062e-05
-2.45176e-06
3.22517e-06
-1.70636e-05
-2.82974e-06
-5.47253e-06
-1.47801e-05
-2.25132e-06
-1.63501e-05
-8.36666e-06
-9.50796e-07
-2.54331e-05
6.08178e-08
-2.10542e-05
-1.73414e-06
7.34749e-07
8.16413e-06
-4.10316e-06
8.35153e-07
1.33365e-05
-6.46955e-06
5.02726e-07
1.37502e-05
-8.85352e-06
-7.28432e-08
1.20884e-05
-1.12884e-05
-7.24322e-07
8.98808e-06
-1.3482e-05
-1.28999e-06
4.13052e-06
-1.45756e-05
-1.5457e-06
-3.00219e-06
-1.30154e-05
-1.23774e-06
-1.22151e-05
-7.42914e-06
-4.96234e-07
-2.02065e-05
6.48538e-08
-1.7367e-05
-6.87223e-07
5.01304e-06
-1.49139e-06
7.34596e-06
-2.32043e-06
7.38094e-06
-3.37971e-06
6.65356e-06
-4.79378e-06
5.43638e-06
-6.4232e-06
3.44976e-06
-7.63079e-06
1.74911e-07
-7.25573e-06
-4.46397e-06
-4.29387e-06
-9.08494e-06
-8.90437e-06
-1.21721e-06
-8.28811e-07
7.05906e-06
-1.8089e-06
-8.37977e-07
8.77564e-06
-2.15773e-06
-3.05154e-07
8.03492e-06
-2.80103e-06
5.47244e-07
6.74962e-06
-4.11816e-06
1.53038e-06
5.22314e-06
-6.17509e-06
2.4591e-06
3.04759e-06
-8.42941e-06
2.9863e-06
-5.57071e-07
-9.23796e-06
2.59082e-06
-6.24624e-06
-6.51189e-06
1.19922e-06
-1.30102e-05
-2.98607e-07
-1.51177e-05
-2.35466e-06
-1.27493e-06
1.09649e-05
-4.33255e-06
-1.40763e-06
1.5884e-05
-5.83172e-06
-4.82713e-07
1.54269e-05
-7.3054e-06
1.00435e-06
1.31049e-05
-9.15075e-06
2.65207e-06
9.71175e-06
-1.14091e-05
4.0467e-06
4.80132e-06
-1.34852e-05
4.6279e-06
-2.56771e-06
-1.36421e-05
3.75846e-06
-1.32259e-05
-9.28557e-06
1.5654e-06
-2.49292e-05
-4.26875e-07
-2.65243e-05
-2.99543e-06
-1.15939e-06
1.20056e-05
-5.96773e-06
-1.32467e-06
1.82779e-05
-8.21055e-06
-4.13717e-07
1.80458e-05
-9.92497e-06
1.03496e-06
1.52953e-05
-1.14483e-05
2.57066e-06
1.10706e-05
-1.29487e-05
3.74717e-06
5.02515e-06
-1.41727e-05
4.05941e-06
-3.6801e-06
-1.38377e-05
3.08264e-06
-1.60092e-05
-9.45713e-06
1.14725e-06
-2.93955e-05
-3.48965e-07
-3.05892e-05
-3.36295e-06
-6.64796e-07
1.22658e-05
-6.89696e-06
-7.69899e-07
1.89395e-05
-9.46606e-06
-2.2101e-07
1.87142e-05
-1.11094e-05
6.42329e-07
1.57528e-05
-1.21938e-05
1.5262e-06
1.1245e-05
-1.30862e-05
2.15401e-06
4.89276e-06
-1.38489e-05
2.2474e-06
-4.13506e-06
-1.34831e-05
1.6261e-06
-1.70026e-05
-9.409e-06
5.58887e-07
-3.10534e-05
-1.79103e-07
-3.21688e-05
-3.52363e-06
2.87124e-13
1.23217e-05
-7.29409e-06
5.29755e-14
1.9076e-05
-9.96233e-06
-6.16504e-14
1.88063e-05
-1.15001e-05
-1.2264e-13
1.57523e-05
-1.23253e-05
-1.91224e-13
1.11751e-05
-1.29407e-05
-2.25586e-13
4.78763e-06
-1.35721e-05
-1.73992e-13
-4.28151e-06
-1.33043e-05
-1.203e-13
-1.73332e-05
-9.41869e-06
-8.02054e-14
-3.16512e-05
-3.63667e-14
-3.2755e-05
-3.52363e-06
6.64797e-07
1.23217e-05
-7.29409e-06
7.69899e-07
1.9076e-05
-9.96233e-06
2.2101e-07
1.88063e-05
-1.15001e-05
-6.42329e-07
1.57523e-05
-1.23253e-05
-1.5262e-06
1.11751e-05
-1.29407e-05
-2.15401e-06
4.78763e-06
-1.35721e-05
-2.2474e-06
-4.28151e-06
-1.33043e-05
-1.6261e-06
-1.73332e-05
-9.41869e-06
-5.58887e-07
-3.16512e-05
1.79103e-07
-3.2755e-05
-3.36295e-06
1.15939e-06
1.22658e-05
-6.89696e-06
1.32467e-06
1.89395e-05
-9.46606e-06
4.13717e-07
1.87142e-05
-1.11094e-05
-1.03496e-06
1.57528e-05
-1.21938e-05
-2.57066e-06
1.1245e-05
-1.30862e-05
-3.74717e-06
4.89276e-06
-1.38489e-05
-4.05941e-06
-4.13506e-06
-1.34831e-05
-3.08264e-06
-1.70026e-05
-9.409e-06
-1.14725e-06
-3.10534e-05
3.48965e-07
-3.21688e-05
-2.99543e-06
1.27493e-06
1.20056e-05
-5.96773e-06
1.40763e-06
1.82779e-05
-8.21055e-06
4.82713e-07
1.80458e-05
-9.92497e-06
-1.00435e-06
1.52953e-05
-1.14483e-05
-2.65207e-06
1.10706e-05
-1.29487e-05
-4.0467e-06
5.02515e-06
-1.41727e-05
-4.6279e-06
-3.6801e-06
-1.38377e-05
-3.75846e-06
-1.60092e-05
-9.45713e-06
-1.5654e-06
-2.93955e-05
4.26875e-07
-3.05892e-05
-2.35466e-06
8.28811e-07
1.09649e-05
-4.33255e-06
8.37977e-07
1.5884e-05
-5.83172e-06
3.05154e-07
1.54269e-05
-7.3054e-06
-5.47244e-07
1.31049e-05
-9.15075e-06
-1.53038e-06
9.71175e-06
-1.14091e-05
-2.4591e-06
4.80132e-06
-1.34852e-05
-2.9863e-06
-2.56771e-06
-1.36421e-05
-2.59082e-06
-1.32259e-05
-9.28557e-06
-1.19922e-06
-2.49292e-05
2.98607e-07
-2.65243e-05
-1.21721e-06
7.05906e-06
-1.8089e-06
8.77564e-06
-2.15773e-06
8.03492e-06
-2.80103e-06
6.74962e-06
-4.11816e-06
5.22314e-06
-6.1751e-06
3.04759e-06
-8.42941e-06
-5.57071e-07
-9.23796e-06
-6.24624e-06
-6.51189e-06
-1.30102e-05
-1.51177e-05
-2.46406e-06
-1.08083e-06
1.06039e-05
-2.20868e-06
-1.07239e-06
9.59265e-06
-1.25427e-06
-3.8123e-07
7.46174e-06
-7.04758e-07
6.88496e-07
5.51161e-06
-1.2006e-06
1.91909e-06
3.79989e-06
-3.06779e-06
3.14913e-06
1.76565e-06
-6.14341e-06
4.0289e-06
-1.51035e-06
-8.68226e-06
3.68011e-06
-7.3875e-06
-7.67144e-06
1.61501e-06
-1.5636e-05
-1.01907e-06
-2.177e-05
-3.99548e-06
-1.52792e-06
1.54075e-05
-4.61629e-06
-1.65301e-06
1.70855e-05
-3.80481e-06
-5.73716e-07
1.48079e-05
-2.8456e-06
1.09191e-06
1.17423e-05
-2.59062e-06
2.94592e-06
8.42993e-06
-3.52076e-06
4.59835e-06
4.28224e-06
-5.69463e-06
5.49585e-06
-1.86079e-06
-8.02167e-06
4.5915e-06
-1.18103e-05
-7.4314e-06
1.61128e-06
-2.55158e-05
-1.39014e-06
-3.35846e-05
-4.59944e-06
-1.30611e-06
1.63833e-05
-5.91763e-06
-1.46637e-06
1.94094e-05
-5.43512e-06
-4.67391e-07
1.7457e-05
-4.25604e-06
1.04964e-06
1.41585e-05
-3.19806e-06
2.65331e-06
1.03052e-05
-2.8972e-06
3.95012e-06
5.37252e-06
-3.80256e-06
4.45917e-06
-1.73806e-06
-5.72203e-06
3.44754e-06
-1.29458e-05
-5.9822e-06
1.01e-06
-2.85341e-05
-1.02752e-06
-3.69341e-05
-4.86102e-06
-7.2164e-07
1.65423e-05
-6.53675e-06
-8.22676e-07
1.99715e-05
-6.18836e-06
-2.41105e-07
1.81395e-05
-4.80898e-06
6.28742e-07
1.47943e-05
-3.23818e-06
1.51449e-06
1.0813e-05
-2.26812e-06
2.18054e-06
5.69228e-06
-2.6301e-06
2.37013e-06
-1.68404e-06
-4.59608e-06
1.74095e-06
-1.333e-05
-5.47078e-06
4.56999e-07
-2.96257e-05
-4.92766e-07
-3.81744e-05
-4.95457e-06
2.17995e-13
1.65547e-05
-6.76118e-06
4.18611e-14
2.006e-05
-6.43419e-06
-7.3528e-14
1.82383e-05
-4.92956e-06
-8.99257e-14
1.48764e-05
-3.12298e-06
-1.53373e-13
1.0883e-05
-1.90643e-06
-1.73432e-13
5.75163e-06
-2.13919e-06
-1.5483e-13
-1.67862e-06
-4.24536e-06
-1.28869e-13
-1.34861e-05
-5.39289e-06
-1.24479e-13
-3.00466e-05
-1.135e-13
-3.86407e-05
-4.95457e-06
7.21641e-07
1.65547e-05
-6.76118e-06
8.22676e-07
2.006e-05
-6.43419e-06
2.41105e-07
1.82383e-05
-4.92956e-06
-6.28742e-07
1.48764e-05
-3.12298e-06
-1.51449e-06
1.0883e-05
-1.90643e-06
-2.18054e-06
5.75163e-06
-2.13919e-06
-2.37013e-06
-1.67862e-06
-4.24536e-06
-1.74095e-06
-1.34861e-05
-5.39289e-06
-4.57e-07
-3.00466e-05
4.92766e-07
-3.86407e-05
-4.86102e-06
1.30611e-06
1.65423e-05
-6.53675e-06
1.46637e-06
1.99715e-05
-6.18836e-06
4.67391e-07
1.81395e-05
-4.80898e-06
-1.04964e-06
1.47943e-05
-3.23818e-06
-2.65331e-06
1.0813e-05
-2.26812e-06
-3.95012e-06
5.69228e-06
-2.6301e-06
-4.45917e-06
-1.68404e-06
-4.59608e-06
-3.44754e-06
-1.333e-05
-5.47078e-06
-1.01e-06
-2.96257e-05
1.02752e-06
-3.81744e-05
-4.59944e-06
1.52792e-06
1.63833e-05
-5.91763e-06
1.65301e-06
1.94094e-05
-5.43512e-06
5.73716e-07
1.7457e-05
-4.25604e-06
-1.09191e-06
1.41585e-05
-3.19806e-06
-2.94592e-06
1.03052e-05
-2.8972e-06
-4.59835e-06
5.37252e-06
-3.80256e-06
-5.49586e-06
-1.73806e-06
-5.72203e-06
-4.5915e-06
-1.29458e-05
-5.9822e-06
-1.61128e-06
-2.85341e-05
1.39014e-06
-3.69341e-05
-3.99548e-06
1.08083e-06
1.54075e-05
-4.6163e-06
1.07239e-06
1.70855e-05
-3.80481e-06
3.8123e-07
1.48079e-05
-2.8456e-06
-6.88495e-07
1.17423e-05
-2.59062e-06
-1.91909e-06
8.42993e-06
-3.52076e-06
-3.14913e-06
4.28224e-06
-5.69463e-06
-4.0289e-06
-1.86079e-06
-8.02167e-06
-3.68011e-06
-1.18103e-05
-7.4314e-06
-1.61501e-06
-2.55158e-05
1.01907e-06
-3.35846e-05
-2.46406e-06
1.06039e-05
-2.20868e-06
9.59265e-06
-1.25427e-06
7.46174e-06
-7.04759e-07
5.51161e-06
-1.2006e-06
3.79989e-06
-3.06779e-06
1.76565e-06
-6.14341e-06
-1.51035e-06
-8.68226e-06
-7.3875e-06
-7.67144e-06
-1.5636e-05
-2.177e-05
-2.66512e-06
-1.85768e-06
1.51267e-05
5.33403e-07
-1.99185e-06
8.38598e-06
4.57863e-06
-1.19841e-06
4.61493e-06
7.44062e-06
-1.40742e-07
2.79036e-06
8.62109e-06
1.10089e-06
1.51854e-06
7.6833e-06
2.38304e-06
3.20398e-07
4.36616e-06
3.54613e-06
-1.73934e-06
-6.12249e-07
3.44209e-06
-5.85119e-06
-3.4687e-06
8.91641e-07
-1.36712e-05
-2.72924e-06
-2.25095e-05
-4.75501e-06
-2.2329e-06
2.05377e-05
-7.36773e-07
-2.67847e-06
1.37538e-05
5.20497e-06
-1.76327e-06
9.431e-06
1.03572e-05
-2.86037e-07
6.73533e-06
1.40285e-05
1.38006e-06
4.47952e-06
1.55388e-05
3.00788e-06
2.14707e-06
1.40853e-05
4.26139e-06
-1.12256e-06
9.3484e-06
3.82214e-06
-7.4534e-06
3.10608e-06
6.76469e-07
-1.90583e-05
-2.77458e-06
-3.04332e-05
-5.51345e-06
-1.71043e-06
2.13742e-05
-1.68355e-06
-2.169e-06
1.50701e-05
4.41906e-06
-1.4327e-06
1.10238e-05
1.02545e-05
-2.24461e-07
8.26149e-06
1.50644e-05
1.11618e-06
5.75919e-06
1.80563e-05
2.35108e-06
3.03748e-06
1.79862e-05
3.18521e-06
-5.91806e-07
1.37559e-05
2.73127e-06
-7.62462e-06
5.73506e-06
4.16313e-07
-2.02531e-05
-1.74078e-06
-3.22328e-05
-5.70681e-06
-8.88727e-07
2.14274e-05
-2.01361e-06
-1.15261e-06
1.52619e-05
4.09345e-06
-7.48442e-07
1.13482e-05
1.01425e-05
-9.94088e-08
8.62027e-06
1.53685e-05
6.08887e-07
6.09429e-06
1.8889e-05
1.23557e-06
3.28725e-06
1.92178e-05
1.61938e-06