/*--------------------------------*- C++ -*----------------------------------*\
  =========                 |
  \\      /  F ield         | OpenFOAM: The Open Source CFD Toolbox
   \\    /   O peration     | Website:  https://openfoam.org
    \\  /    A nd           | Version:  9
     \\/     M anipulation  |
\*---------------------------------------------------------------------------*/
FoamFile
{
    format      ascii;
    class       volScalarField;
    location    "0.1";
    object      p;
}
// * * * * * * * * * * * * * * * * * * * * * * * * * * * * * * * * * * * * * //

dimensions      [0 2 -2 0 0 0 0];

internalField   nonuniform List<scalar> 
1000
(
3.32496e-09
-0.000157608
0.000955009
0.00305002
0.00592507
0.00927336
0.0126367
0.0154535
0.017155
0.0171165
0.000130782
-0.000268068
0.00082098
0.00296653
0.00594479
0.00941513
0.0129079
0.0158225
0.0175183
0.0171716
0.000324833
-0.000187803
0.00087852
0.00303173
0.00604201
0.00957303
0.0131326
0.0160912
0.0177698
0.0172537
0.000484237
-8.53711e-05
0.000959743
0.00310849
0.00613123
0.00968767
0.0132759
0.0162499
0.0179148
0.017322
0.000571822
-1.82021e-05
0.00101584
0.00315863
0.0061823
0.00974577
0.0133429
0.0163208
0.0179791
0.0173588
0.00057177
-1.82445e-05
0.00101581
0.00315861
0.00618229
0.00974577
0.0133429
0.0163208
0.0179791
0.0173588
0.000484062
-8.55081e-05
0.000959647
0.00310844
0.00613121
0.00968767
0.0132759
0.0162499
0.0179148
0.017322
0.00032446
-0.000188068
0.000878346
0.00303164
0.00604197
0.00957302
0.0131326
0.0160912
0.0177698
0.0172537
0.000130104
-0.000268516
0.000820718
0.00296639
0.00594473
0.00941512
0.012908
0.0158225
0.0175183
0.0171717
-9.07413e-07
-0.000158274
0.000954637
0.00304983
0.00592498
0.00927332
0.0126367
0.0154535
0.017155
0.0171166
5.39069e-05
-0.000167711
0.000924854
0.00296265
0.00577527
0.00907557
0.0124558
0.0153393
0.0171295
0.0170337
0.000473456
-1.8425e-05
0.00103229
0.00305575
0.00587397
0.00920559
0.0126233
0.0155386
0.0172929
0.0168224
0.000830505
0.000195555
0.00120615
0.00320296
0.00601209
0.00935577
0.0127958
0.0157235
0.0174469
0.0167815
0.00106783
0.000365505
0.00134613
0.00332089
0.00612012
0.00946672
0.0129167
0.0158478
0.0175518
0.0168011
0.00118409
0.000457259
0.00142288
0.0033853
0.00617759
0.00952323
0.012976
0.0159071
0.0176024
0.0168193
0.00118405
0.000457221
0.00142285
0.00338529
0.0061776
0.00952324
0.012976
0.0159071
0.0176024
0.0168193
0.00106768
0.000365385
0.00134605
0.00332086
0.00612012
0.00946674
0.0129168
0.0158478
0.0175518
0.0168011
0.000830215
0.000195335
0.001206
0.00320289
0.00601207
0.00935578
0.0127958
0.0157236
0.0174469
0.0167815
0.000472976
-1.87705e-05
0.00103208
0.00305565
0.00587394
0.0092056
0.0126233
0.0155387
0.017293
0.0168225
5.32091e-05
-0.000168188
0.000924569
0.00296251
0.00577521
0.00907557
0.0124558
0.0153393
0.0171296
0.0170338
-0.00138247
-0.00169296
-0.00048411
0.00176934
0.00491032
0.00868097
0.0126393
0.0161686
0.0184814
0.0184385
-0.000757682
-0.00141763
-0.000266333
0.00195282
0.0050769
0.00885764
0.0128582
0.0164222
0.0186808
0.0181225
-0.000243099
-0.00109086
1.44057e-06
0.00217081
0.00526302
0.00903868
0.0130566
0.0166334
0.0188516
0.0180319
8.83377e-05
-0.000846627
0.000201504
0.00233125
0.00539615
0.00916167
0.013184
0.0167632
0.0189579
0.0180262
0.000245879
-0.00072069
0.000305105
0.00241357
0.00546276
0.00922038
0.0132423
0.016821
0.0190065
0.0180374
0.000245836
-0.000720725
0.000305083
0.00241356
0.00546276
0.00922039
0.0132423
0.016821
0.0190065
0.0180374
8.82035e-05
-0.000846735
0.000201434
0.00233122
0.00539615
0.00916168
0.013184
0.0167632
0.0189579
0.0180262
-0.000243334
-0.00109104
1.32001e-06
0.00217076
0.00526302
0.00903869
0.0130566
0.0166334
0.0188516
0.0180319
-0.000758023
-0.0014179
-0.000266509
0.00195274
0.00507687
0.00885765
0.0128582
0.0164223
0.0186808
0.0181225
-0.00138292
-0.0016933
-0.000484339
0.00176922
0.00491027
0.00868097
0.0126393
0.0161686
0.0184814
0.0184385
-0.00446027
-0.00481784
-0.00333352
-0.000623331
0.00316991
0.00782762
0.0129295
0.0177727
0.0212158
0.0215622
-0.00358459
-0.00439655
-0.00298925
-0.000329982
0.00343489
0.00809946
0.01326
0.0181642
0.0215378
0.0211842
-0.00286611
-0.00392472
-0.00260584
-2.91075e-05
0.00367527
0.00831379
0.0134962
0.0184298
0.0217639
0.0210743
-0.00240839
-0.00358271
-0.00233195
0.000177914
0.00382993
0.00843887
0.0136222
0.0185661
0.0218812
0.021058
-0.00219393
-0.00341044
-0.00219468
0.000279191
0.0039014
0.00849068
0.0136712
0.0186183
0.0219281
0.021064
-0.00219397
-0.00341047
-0.0021947
0.000279181
0.00390139
0.00849067
0.0136712
0.0186182
0.0219281
0.021064
-0.00240851
-0.00358281
-0.00233201
0.000177882
0.00382991
0.00843886
0.0136222
0.0185661
0.0218812
0.0210579
-0.00286631
-0.00392488
-0.00260594
-2.91614e-05
0.00367524
0.00831377
0.0134961
0.0184297
0.0217638
0.0210742
-0.00358486
-0.00439677
-0.00298941
-0.000330064
0.00343484
0.00809943
0.0132599
0.0181641
0.0215377
0.0211842
-0.00446058
-0.00481811
-0.00333371
-0.000623442
0.00316985
0.00782757
0.0129295
0.0177726
0.0212157
0.0215621
-0.00976554
-0.0100412
-0.00805735
-0.00462931
0.000134612
0.00612101
0.0130095
0.0200956
0.0257177
0.027341
-0.00851777
-0.00940975
-0.00754744
-0.0042105
0.000493995
0.00646701
0.0134433
0.0206598
0.0262245
0.0270108
-0.0075137
-0.00874407
-0.00702848
-0.00383774
0.000749866
0.00663581
0.0136546
0.0209455
0.0265117
0.0269452
-0.00688544
-0.00827552
-0.00667252
-0.00359828
0.000890508
0.006705
0.0137221
0.0210479
0.0266263
0.0269421
-0.00659581
-0.00804431
-0.00649902
-0.00348687
0.000946287
0.00671062
0.0137315
0.0210723
0.0266624
0.0269505
-0.00659585
-0.00804434
-0.00649904
-0.00348688
0.00094627
0.0067106
0.0137315
0.0210722
0.0266624
0.0269505
-0.00688554
-0.00827561
-0.00667258
-0.00359833
0.000890462
0.00670495
0.013722
0.0210478
0.0266262
0.0269421
-0.00751386
-0.0087442
-0.00702857
-0.00383781
0.000749803
0.00663574
0.0136546
0.0209455
0.0265117
0.0269452
-0.00851798
-0.00940993
-0.00754757
-0.00421058
0.000493919
0.00646692
0.0134432
0.0206597
0.0262245
0.0270108
-0.00976579
-0.0100414
-0.00805749
-0.00462941
0.000134516
0.00612091
0.0130095
0.0200956
0.0257177
0.027341
-0.0183112
-0.0181042
-0.0152528
-0.0108091
-0.00479634
0.00289665
0.0122582
0.022882
0.0325937
0.0376975
-0.0164801
-0.0171793
-0.0145798
-0.0103476
-0.00448423
0.0031488
0.01253
0.0234024
0.0332188
0.0377487
-0.0150635
-0.0162608
-0.0139356
-0.00998472
-0.00435553
0.00314918
0.0124656
0.0234783
0.0334599
0.037876
-0.0142029
-0.0156316
-0.0135049
-0.00976473
-0.00431573
0.00307446
0.0123285
0.0234108
0.0335043
0.0379299
-0.0138146
-0.0153269
-0.0132984
-0.00966577
-0.00431096
0.00302184
0.0122334
0.0233425
0.0334932
0.0379557
-0.0138146
-0.015327
-0.0132984
-0.00966579
-0.00431098
0.00302182
0.0122334
0.0233425
0.0334932
0.0379557
-0.014203
-0.0156317
-0.0135049
-0.00976478
-0.00431579
0.0030744
0.0123284
0.0234108
0.0335043
0.0379298
-0.0150636
-0.0162609
-0.0139356
-0.00998479
-0.00435562
0.00314909
0.0124655
0.0234783
0.0334599
0.037876
-0.0164803
-0.0171795
-0.0145799
-0.0103476
-0.00448432
0.0031487
0.0125299
0.0234024
0.0332188
0.0377487
-0.0183114
-0.0181044
-0.0152529
-0.0108092
-0.00479645
0.00289654
0.0122581
0.0228821
0.0325938
0.0376975
-0.0320314
-0.030013
-0.025524
-0.0196428
-0.0121607
-0.00260947
0.00970863
0.0253875
0.0421629
0.0560167
-0.0292391
-0.0286784
-0.0248329
-0.0194975
-0.0124553
-0.0032757
0.00874807
0.0246464
0.0419828
0.0563356
-0.027197
-0.0274175
-0.0241293
-0.0193626
-0.0128131
-0.00403418
0.0077205
0.0237943
0.0416579
0.0564931
-0.0260122
-0.0265759
-0.0236465
-0.0192633
-0.0130632
-0.00457146
0.00700733
0.0231692
0.0413465
0.0565473
-0.0254922
-0.0261752
-0.0234113
-0.0192121
-0.0131854
-0.00483691
0.00665691
0.022852
0.0411696
0.0565831
-0.0254922
-0.0261753
-0.0234113
-0.0192122
-0.0131854
-0.00483693
0.0066569
0.022852
0.0411695
0.0565831
-0.0260122
-0.026576
-0.0236465
-0.0192634
-0.0130633
-0.00457152
0.0070073
0.0231692
0.0413465
0.0565473
-0.0271971
-0.0274175
-0.0241294
-0.0193627
-0.0128132
-0.00403427
0.00772046
0.0237943
0.0416579
0.0564931
-0.0292392
-0.0286785
-0.024833
-0.0194976
-0.0124554
-0.00327578
0.00874805
0.0246464
0.0419828
0.0563356
-0.0320315
-0.030013
-0.0255241
-0.0196429
-0.0121608
-0.00260954
0.00970864
0.0253876
0.042163
0.0560167
-0.0560112
-0.0470358
-0.0391046
-0.0309252
-0.021652
-0.010252
0.00489753
0.0265055
0.0531452
0.087156
-0.0518876
-0.0452269
-0.0387548
-0.0317637
-0.0234012
-0.0129891
0.000886995
0.0220259
0.0491931
0.0869034
-0.0489503
-0.0434344
-0.0380279
-0.0321073
-0.0246624
-0.0151075
-0.00203596
0.0190081
0.0471343
0.0866848
-0.0473096
-0.0422623
-0.0374645
-0.0321908
-0.0253541
-0.0163531
-0.00370861
0.0173294
0.046029
0.0865983
-0.0466091
-0.0417141
-0.0371746
-0.0321938
-0.0256444
-0.0169039
-0.00444795
0.0165694
0.0454602
0.086728
-0.0466091
-0.0417141
-0.0371746
-0.0321938
-0.0256444
-0.0169039
-0.00444796
0.0165694
0.0454602
0.0867281
-0.0473096
-0.0422623
-0.0374645
-0.0321909
-0.0253542
-0.0163532
-0.00370864
0.0173294
0.046029
0.0865983
-0.0489503
-0.0434344
-0.038028
-0.0321074
-0.0246624
-0.0151076
-0.00203598
0.0190081
0.0471343
0.0866849
-0.0518876
-0.0452269
-0.0387548
-0.0317638
-0.0234013
-0.0129892
0.000886982
0.0220259
0.0491931
0.0869034
-0.0560111
-0.0470357
-0.0391047
-0.0309254
-0.0216521
-0.010252
0.00489757
0.0265056
0.0531452
0.087156
-0.0920398
-0.0673655
-0.0549313
-0.043037
-0.0314005
-0.0183657
-0.00123037
0.0288289
0.0667763
0.153508
-0.0843095
-0.0646548
-0.0555249
-0.0455049
-0.0351229
-0.0235443
-0.00860862
0.0203858
0.0571447
0.161004
-0.0797588
-0.0620002
-0.0547747
-0.04641
-0.0373631
-0.0270155
-0.0134324
0.0153886
0.0548288
0.16407
-0.0774704
-0.0603127
-0.0540904
-0.0466513
-0.0384655
-0.028898
-0.0160471
0.0129073
0.053746
0.165181
-0.0765393
-0.059538
-0.0537197
-0.0466842
-0.0389022
-0.0297015
-0.0171949
0.0117292
0.0523741
0.166632
-0.0765393
-0.059538
-0.0537197
-0.0466842
-0.0389023
-0.0297015
-0.0171949
0.0117292
0.0523742
0.166632
-0.0774704
-0.0603127
-0.0540905
-0.0466514
-0.0384656
-0.0288981
-0.0160472
0.0129074
0.0537461
0.165181
-0.0797588
-0.0620002
-0.0547747
-0.0464101
-0.0373631
-0.0270156
-0.0134324
0.0153886
0.0548289
0.16407
-0.0843094
-0.0646547
-0.0555249
-0.045505
-0.0351229
-0.0235444
-0.00860861
0.0203859
0.0571447
0.161003
-0.0920398
-0.0673655
-0.0549314
-0.0430371
-0.0314005
-0.0183657
-0.00123034
0.0288289
0.0667763
0.153508
-0.205652
-0.0837364
-0.0570811
-0.0427244
-0.0299211
-0.0151438
0.00680457
0.0506743
0.127476
0.319594
-0.19468
-0.0739236
-0.0530597
-0.04244
-0.03198
-0.0191826
0.000354276
0.0456063
0.131626
0.344006
-0.188299
-0.0686731
-0.0503702
-0.0420666
-0.033357
-0.0219536
-0.00347733
0.0431526
0.134797
0.356052
-0.185073
-0.0659387
-0.048746
-0.0416958
-0.0340543
-0.0234672
-0.00547937
0.0417586
0.135734
0.360842
-0.183759
-0.064788
-0.0480119
-0.0414942
-0.0343345
-0.0241206
-0.00635979
0.0410347
0.13575
0.362595
-0.183759
-0.064788
-0.0480119
-0.0414942
-0.0343345
-0.0241206
-0.00635982
0.0410348
0.13575
0.362595
-0.185072
-0.0659387
-0.048746
-0.0416959
-0.0340544
-0.0234673
-0.00547941
0.0417587
0.135734
0.360842
-0.188299
-0.0686731
-0.0503702
-0.0420666
-0.033357
-0.0219536
-0.00347733
0.0431527
0.134797
0.356052
-0.19468
-0.0739236
-0.0530597
-0.04244
-0.03198
-0.0191826
0.000354282
0.0456063
0.131626
0.344006
-0.205652
-0.0837364
-0.0570812
-0.0427245
-0.0299211
-0.0151438
0.00680463
0.0506744
0.127476
0.319594
)
;

boundaryField
{
    top
    {
        type            zeroGradient;
    }
    others
    {
        type            zeroGradient;
    }
}


// ************************************************************************* //
