/*--------------------------------*- C++ -*----------------------------------*\
  =========                 |
  \\      /  F ield         | OpenFOAM: The Open Source CFD Toolbox
   \\    /   O peration     | Website:  https://openfoam.org
    \\  /    A nd           | Version:  9
     \\/     M anipulation  |
\*---------------------------------------------------------------------------*/
FoamFile
{
    format      ascii;
    class       surfaceScalarField;
    location    "0.1";
    object      phi;
}
// * * * * * * * * * * * * * * * * * * * * * * * * * * * * * * * * * * * * * //

dimensions      [0 3 -1 0 0 0 0];

internalField   nonuniform List<scalar> 
2700
(
-1.7158e-07
-2.45544e-08
1.96134e-07
-5.07169e-07
-2.57594e-09
3.38165e-07
-8.35265e-07
4.51569e-09
3.2358e-07
-1.08003e-06
-3.02315e-10
2.45064e-07
-1.20307e-06
-1.0698e-08
1.33746e-07
-1.17429e-06
-2.81148e-08
-6.69344e-10
-9.77654e-07
-4.5517e-08
-1.51119e-07
-6.29942e-07
-5.67149e-08
-2.90997e-07
-2.23779e-07
-5.01367e-08
-3.56026e-07
-8.51784e-09
-2.15262e-07
-2.96319e-07
-3.55958e-08
3.0736e-07
-8.50574e-07
-2.09745e-08
5.72654e-07
-1.38297e-06
-1.25013e-08
5.49412e-07
-1.77243e-06
-1.35053e-08
4.02667e-07
-1.95769e-06
-2.17125e-08
1.96271e-07
-1.89998e-06
-3.47699e-08
-5.10536e-08
-1.57667e-06
-4.81423e-08
-3.20687e-07
-1.01506e-06
-5.54375e-08
-5.62881e-07
-3.63834e-07
-4.72294e-08
-6.54138e-07
-1.20171e-08
-3.60334e-07
-3.24792e-07
-3.04239e-08
3.1962e-07
-9.39128e-07
-2.65233e-08
6.19885e-07
-1.52858e-06
-2.02862e-08
5.97236e-07
-1.95744e-06
-1.82906e-08
4.33647e-07
-2.16047e-06
-2.07549e-08
2.02072e-07
-2.09388e-06
-2.64022e-08
-7.49582e-08
-1.73359e-06
-3.24235e-08
-3.76011e-07
-1.10993e-06
-3.49842e-08
-6.44106e-07
-3.90876e-07
-2.9216e-08
-7.37073e-07
-1.00368e-08
-3.92856e-07
-3.2591e-07
-1.68757e-08
3.12362e-07
-9.53942e-07
-1.69309e-08
6.18439e-07
-1.55838e-06
-1.37647e-08
5.97917e-07
-1.99833e-06
-1.19166e-08
4.33579e-07
-2.20664e-06
-1.20151e-08
1.99566e-07
-2.13811e-06
-1.35784e-08
-8.13508e-08
-1.76773e-06
-1.54339e-08
-3.87368e-07
-1.12703e-06
-1.59116e-08
-6.59776e-07
-3.91293e-07
-1.31719e-08
-7.51781e-07
-5.42979e-09
-3.959e-07
-3.23977e-07
3.93253e-12
3.07097e-07
-9.54238e-07
1.29768e-12
6.13329e-07
-1.56214e-06
9.12623e-13
5.94132e-07
-2.00511e-06
8.26342e-13
4.31052e-07
-2.21517e-06
6.41143e-13
1.98047e-07
-2.14646e-06
4.75622e-13
-8.22888e-08
-1.7736e-06
3.74643e-13
-3.88292e-07
-1.1286e-06
3.79538e-13
-6.60914e-07
-3.89312e-07
4.40437e-13
-7.52459e-07
4.60639e-14
-3.94742e-07
-3.23977e-07
1.6884e-08
3.07097e-07
-9.54239e-07
1.69336e-08
6.13329e-07
-1.56214e-06
1.37667e-08
5.94132e-07
-2.00511e-06
1.19184e-08
4.31052e-07
-2.21517e-06
1.20165e-08
1.98047e-07
-2.14646e-06
1.35795e-08
-8.22889e-08
-1.7736e-06
1.54347e-08
-3.88292e-07
-1.1286e-06
1.59124e-08
-6.60914e-07
-3.89312e-07
1.31728e-08
-7.52459e-07
5.42985e-09
-3.94742e-07
-3.25911e-07
3.04334e-08
3.12362e-07
-9.53943e-07
2.65255e-08
6.1844e-07
-1.55838e-06
2.02885e-08
5.97917e-07
-1.99833e-06
1.82927e-08
4.33578e-07
-2.20664e-06
2.07565e-08
1.99565e-07
-2.13811e-06
2.64034e-08
-8.13512e-08
-1.76773e-06
3.24243e-08
-3.87369e-07
-1.12703e-06
3.49849e-08
-6.59776e-07
-3.91293e-07
2.92169e-08
-7.51781e-07
1.00367e-08
-3.95899e-07
-3.24793e-07
3.56068e-08
3.1962e-07
-9.39129e-07
2.09736e-08
6.19888e-07
-1.52858e-06
1.25036e-08
5.97237e-07
-1.95744e-06
1.35074e-08
4.33646e-07
-2.16047e-06
2.17143e-08
2.02071e-07
-2.09388e-06
3.47711e-08
-7.49588e-08
-1.73359e-06
4.81432e-08
-3.76011e-07
-1.10993e-06
5.54382e-08
-6.44106e-07
-3.90875e-07
4.72303e-08
-7.37073e-07
1.20171e-08
-3.92856e-07
-2.96315e-07
2.45556e-08
3.07366e-07
-8.50573e-07
2.57087e-09
5.72662e-07
-1.38297e-06
-4.51386e-09
5.49415e-07
-1.77243e-06
3.03969e-10
4.02667e-07
-1.95769e-06
1.06995e-08
1.96271e-07
-1.89998e-06
2.81159e-08
-5.1054e-08
-1.57667e-06
4.55176e-08
-3.20687e-07
-1.01506e-06
5.67153e-08
-5.62881e-07
-3.63833e-07
5.01375e-08
-6.54139e-07
8.51836e-09
-3.60335e-07
-1.7158e-07
1.96136e-07
-5.0718e-07
3.38171e-07
-8.35273e-07
3.23579e-07
-1.08003e-06
2.45063e-07
-1.20308e-06
1.33746e-07
-1.17429e-06
-6.69476e-10
-9.77656e-07
-1.51119e-07
-6.29944e-07
-2.90997e-07
-2.2378e-07
-3.56027e-07
-2.15261e-07
-3.35098e-07
-7.4504e-08
6.05736e-07
-8.97486e-07
-5.16506e-08
9.52203e-07
-1.43136e-06
-3.63987e-08
8.9385e-07
-1.82574e-06
-2.98237e-08
6.69268e-07
-2.0208e-06
-3.03431e-08
3.59149e-07
-1.97624e-06
-3.67739e-08
-8.45442e-09
-1.66196e-06
-4.46634e-08
-4.20733e-07
-1.10129e-06
-4.7722e-08
-8.03948e-07
-4.27241e-07
-3.17575e-08
-9.98314e-07
2.22052e-08
-6.64708e-07
-6.2792e-07
-8.32986e-08
9.44075e-07
-1.62102e-06
-7.28659e-08
1.58697e-06
-2.545e-06
-5.5544e-08
1.49253e-06
-3.20998e-06
-4.50543e-08
1.08288e-06
-3.52043e-06
-4.23166e-08
5.18696e-07
-3.41641e-06
-4.62278e-08
-1.4562e-07
-2.8614e-06
-5.21773e-08
-8.68186e-07
-1.89747e-06
-5.2635e-08
-1.5219e-06
-7.48447e-07
-3.5485e-08
-1.79943e-06
1.12106e-08
-1.09779e-06
-7.05152e-07
-6.0585e-08
1.00206e-06
-1.82467e-06
-6.14106e-08
1.72795e-06
-2.86284e-06
-4.91388e-08
1.62899e-06
-3.60532e-06
-3.95479e-08
1.17062e-06
-3.94716e-06
-3.51552e-08
5.36747e-07
-3.82321e-06
-3.53836e-08
-2.09745e-07
-3.19526e-06
-3.72596e-08
-1.01889e-06
-2.11125e-06
-3.58017e-08
-1.74494e-06
-8.25642e-07
-2.47503e-08
-2.03342e-06
8.36457e-10
-1.20812e-06
-7.14486e-07
-3.07822e-08
9.97045e-07
-1.86263e-06
-3.37817e-08
1.73896e-06
-2.92934e-06
-2.77657e-08
1.64325e-06
-3.69224e-06
-2.2242e-08
1.17917e-06
-4.04319e-06
-1.91021e-08
5.34465e-07
-3.91511e-06
-1.81959e-08
-2.2662e-07
-3.26852e-06
-1.82189e-08
-1.053e-06
-2.15321e-06
-1.69406e-08
-1.79394e-06
-8.34769e-07
-1.1969e-08
-2.08301e-06
-1.79067e-09
-1.22804e-06
-7.12459e-07
1.44668e-12
9.88772e-07
-1.86513e-06
-2.32538e-12
1.73223e-06
-2.93794e-06
-1.64722e-12
1.63917e-06
-3.70593e-06
-6.05332e-13
1.1768e-06
-4.05973e-06
-1.89042e-13
5.32745e-07
-3.93137e-06
1.55176e-14
-2.28836e-07
-3.28072e-06
1.45532e-13
-1.05716e-06
-2.15824e-06
4.31377e-13
-1.80034e-06
-8.33196e-07
8.06425e-13
-2.08947e-06
5.74065e-13
-1.22973e-06
-7.12458e-07
3.07849e-08
9.88772e-07
-1.86513e-06
3.37767e-08
1.73223e-06
-2.93794e-06
2.77623e-08
1.63917e-06
-3.70593e-06
2.22408e-08
1.1768e-06
-4.05973e-06
1.91017e-08
5.32745e-07
-3.93137e-06
1.81959e-08
-2.28836e-07
-3.28072e-06
1.82192e-08
-1.05716e-06
-2.15824e-06
1.69416e-08
-1.80034e-06
-8.33196e-07
1.19707e-08
-2.08947e-06
1.79176e-09
-1.22973e-06
-7.14485e-07
6.05872e-08
9.97045e-07
-1.86263e-06
6.14046e-08
1.73896e-06
-2.92934e-06
4.91354e-08
1.64325e-06
-3.69224e-06
3.95469e-08
1.17917e-06
-4.04319e-06
3.51551e-08
5.34465e-07
-3.91511e-06
3.53838e-08
-2.26621e-07
-3.26852e-06
3.72601e-08
-1.053e-06
-2.15321e-06
3.58028e-08
-1.79394e-06
-8.34769e-07
2.47521e-08
-2.08301e-06
-8.35586e-10
-1.22804e-06
-7.0515e-07
8.32981e-08
1.00206e-06
-1.82467e-06
7.28583e-08
1.72795e-06
-2.86283e-06
5.55407e-08
1.62899e-06
-3.60532e-06
4.50537e-08
1.17062e-06
-3.94715e-06
4.23169e-08
5.36746e-07
-3.82321e-06
4.62282e-08
-2.09746e-07
-3.19525e-06
5.2178e-08
-1.01889e-06
-2.11125e-06
5.26362e-08
-1.74494e-06
-8.25641e-07
3.54871e-08
-2.03342e-06
-1.12095e-08
-1.20812e-06
-6.27912e-07
7.44988e-08
9.44077e-07
-1.62101e-06
5.16438e-08
1.58698e-06
-2.54499e-06
3.6397e-08
1.49254e-06
-3.20997e-06
2.98241e-08
1.08288e-06
-3.52043e-06
3.03441e-08
5.18696e-07
-3.41641e-06
3.67747e-08
-1.4562e-07
-2.86139e-06
4.46643e-08
-8.68186e-07
-1.89746e-06
4.77234e-08
-1.5219e-06
-7.48445e-07
3.17598e-08
-1.79943e-06
-2.22036e-08
-1.09779e-06
-3.35093e-07
6.05727e-07
-8.97484e-07
9.52206e-07
-1.43136e-06
8.9385e-07
-1.82574e-06
6.69268e-07
-2.0208e-06
3.59149e-07
-1.97624e-06
-8.45422e-09
-1.66196e-06
-4.20733e-07
-1.10129e-06
-8.03947e-07
-4.2724e-07
-9.98313e-07
-6.64705e-07
-4.3799e-07
-1.15336e-07
1.15906e-06
-1.14645e-06
-9.24803e-08
1.75314e-06
-1.80777e-06
-7.03556e-08
1.62552e-06
-2.29992e-06
-5.52015e-08
1.21662e-06
-2.56003e-06
-4.74104e-08
6.66664e-07
-2.53886e-06
-4.77269e-08
1.81062e-08
-2.1839e-06
-5.16014e-08
-7.24094e-07
-1.49413e-06
-5.18572e-08
-1.44186e-06
-6.08521e-07
-2.95015e-08
-1.85442e-06
3.92246e-08
-1.31245e-06
-8.37285e-07
-1.26028e-07
1.79205e-06
-2.11228e-06
-1.19e-07
2.88849e-06
-3.27769e-06
-9.31836e-08
2.68077e-06
-4.11989e-06
-7.19002e-08
1.94178e-06
-4.53857e-06
-5.90288e-08
9.48991e-07
-4.45909e-06
-5.51461e-08
-2.17684e-07
-3.81279e-06
-5.60473e-08
-1.51004e-06
-2.60464e-06
-5.31544e-08
-2.72874e-06
-1.07423e-06
-3.04636e-08
-3.32888e-06
2.55566e-08
-2.15835e-06
-9.44804e-07
-8.89709e-08
1.90981e-06
-2.38865e-06
-9.39135e-08
3.14671e-06
-3.70383e-06
-7.52267e-08
2.92622e-06
-4.6478e-06
-5.71947e-08
2.09989e-06
-5.1102e-06
-4.48862e-08
9.85001e-07
-5.01008e-06
-3.89244e-08
-3.26083e-07
-4.27415e-06
-3.67985e-08
-1.77407e-06
-2.90959e-06
-3.29965e-08
-3.12966e-06
-1.1908e-06
-1.92767e-08
-3.76339e-06
8.89937e-09
-2.38227e-06
-9.58084e-07
-4.40949e-08
1.91025e-06
-2.43936e-06
-4.95691e-08
3.17589e-06
-3.79127e-06
-4.02841e-08
2.96022e-06
-4.76179e-06
-3.03379e-08
2.12284e-06
-5.23711e-06
-2.30286e-08
9.87935e-07
-5.13377e-06
-1.88446e-08
-3.50046e-07
-4.376e-06
-1.68067e-08
-1.83077e-06
-2.97151e-06
-1.44236e-08
-3.217e-06
-1.2074e-06
-8.61286e-09
-3.85778e-06
1.81288e-09
-2.42836e-06
-9.55215e-07
1.08332e-12
1.89989e-06
-2.44184e-06
-1.95127e-12
3.16928e-06
-3.80117e-06
-1.0833e-12
2.95822e-06
-4.77815e-06
-5.87674e-14
2.12344e-06
-5.25755e-06
1.63257e-13
9.89113e-07
-5.15479e-06
1.55471e-13
-3.50446e-07
-4.39292e-06
2.00182e-13
-1.83584e-06
-2.97983e-06
3.29815e-13
-3.22785e-06
-1.20684e-06
4.37537e-13
-3.87107e-06
4.95662e-13
-2.43476e-06
-9.55215e-07
4.40971e-08
1.89989e-06
-2.44184e-06
4.95651e-08
3.16928e-06
-3.80117e-06
4.02819e-08
2.95822e-06
-4.77815e-06
3.03376e-08
2.12344e-06
-5.25755e-06
2.30288e-08
9.89112e-07
-5.15479e-06
1.88448e-08
-3.50446e-07
-4.39292e-06
1.68071e-08
-1.83584e-06
-2.97983e-06
1.44242e-08
-3.22785e-06
-1.20684e-06
8.61378e-09
-3.87107e-06
-1.81201e-09
-2.43476e-06
-9.58084e-07
8.89732e-08
1.91025e-06
-2.43936e-06
9.39092e-08
3.17589e-06
-3.79127e-06
7.52244e-08
2.96022e-06
-4.76179e-06
5.71943e-08
2.12284e-06
-5.23711e-06
4.48861e-08
9.87934e-07
-5.13377e-06
3.89243e-08
-3.50046e-07
-4.376e-06
3.67987e-08
-1.83077e-06
-2.97151e-06
3.29971e-08
-3.217e-06
-1.2074e-06
1.92776e-08
-3.85778e-06
-8.89872e-09
-2.42836e-06
-9.44803e-07
1.2603e-07
1.9098e-06
-2.38865e-06
1.18996e-07
3.14671e-06
-3.70383e-06
9.31814e-08
2.92622e-06
-4.6478e-06
7.19e-08
2.09989e-06
-5.1102e-06
5.90288e-08
9.85e-07
-5.01008e-06
5.51459e-08
-3.26084e-07
-4.27415e-06
5.60474e-08
-1.77407e-06
-2.90959e-06
5.3155e-08
-3.12966e-06
-1.1908e-06
3.04645e-08
-3.76339e-06
-2.5556e-08
-2.38227e-06
-8.37281e-07
1.15338e-07
1.79205e-06
-2.11227e-06
9.24769e-08
2.88849e-06
-3.27769e-06
7.03545e-08
2.68078e-06
-4.11989e-06
5.52019e-08
1.94178e-06
-4.53857e-06
4.74109e-08
9.48991e-07
-4.45908e-06
4.77271e-08
-2.17685e-07
-3.81279e-06
5.16017e-08
-1.51004e-06
-2.60464e-06
5.18579e-08
-2.72874e-06
-1.07423e-06
2.95024e-08
-3.32888e-06
-3.92242e-08
-2.15835e-06
-4.37991e-07
1.15906e-06
-1.14645e-06
1.75314e-06
-1.80777e-06
1.62552e-06
-2.29992e-06
1.21662e-06
-2.56003e-06
6.66664e-07
-2.53886e-06
1.8106e-08
-2.1839e-06
-7.24093e-07
-1.49413e-06
-1.44186e-06
-6.08521e-07
-1.85442e-06
-1.31245e-06
-5.72963e-07
-1.64343e-07
1.89637e-06
-1.45969e-06
-1.38798e-07
2.77866e-06
-2.27054e-06
-1.07125e-07
2.5435e-06
-2.8837e-06
-8.18949e-08
1.91168e-06
-3.24417e-06
-6.55716e-08
1.0927e-06
-3.29113e-06
-5.9485e-08
1.24548e-07
-2.93807e-06
-6.38828e-08
-1.01326e-06
-2.11437e-06
-6.62716e-08
-2.19929e-06
-9.30236e-07
-3.99006e-08
-2.99865e-06
4.7019e-08
-2.28971e-06
-1.09307e-06
-1.78639e-07
2.89941e-06
-2.69622e-06
-1.73237e-07
4.52608e-06
-4.13374e-06
-1.34716e-07
4.14588e-06
-5.18765e-06
-9.89299e-08
3.01273e-06
-5.76988e-06
-7.3516e-08
1.53916e-06
-5.79628e-06
-6.08626e-08
-1.89911e-07
-5.13185e-06
-5.8804e-08
-2.17955e-06
-3.67813e-06
-5.71273e-08
-4.19161e-06
-1.62708e-06
-3.29609e-08
-5.38688e-06
3.22981e-08
-3.7707e-06
-1.23095e-06
-1.2471e-07
3.08683e-06
-3.04638e-06
-1.32947e-07
4.92184e-06
-4.67034e-06
-1.04075e-07
4.51955e-06
-5.85352e-06
-7.37318e-08
3.25787e-06
-6.49886e-06
-5.04302e-08
1.60725e-06
-6.51555e-06
-3.64752e-08
-3.3378e-07
-5.75624e-06
-3.08143e-08
-2.56136e-06
-4.11304e-06
-2.74336e-08
-4.80256e-06
-1.8078e-06
-1.47383e-08
-6.08685e-06
1.38299e-08
-4.1716e-06
-1.24607e-06
-6.11145e-08
3.09273e-06
-3.10668e-06
-6.87672e-08
4.97232e-06
-4.77548e-06
-5.41083e-08
4.57906e-06
-5.99247e-06
-3.74235e-08
3.30352e-06
-6.65692e-06
-2.40069e-08
1.62596e-06
-6.67545e-06
-1.52632e-08
-3.5273e-07
-5.89553e-06
-1.11457e-08
-2.63036e-06
-4.20575e-06
-8.92071e-09
-4.92528e-06
-1.8394e-06
-4.31336e-09
-6.23456e-06
4.50069e-09
-4.25843e-06
-1.24111e-06
8.73589e-13
3.07988e-06
-3.10706e-06
-1.31418e-12
4.96647e-06
-4.78443e-06
-5.47079e-13
4.58149e-06
-6.0096e-06
1.63751e-13
3.31119e-06
-6.68018e-06
1.36881e-13
1.63568e-06
-6.7018e-06
-1.35536e-13
-3.44084e-07
-5.91936e-06
-3.19465e-13
-2.62943e-06
-4.22046e-06
-5.45804e-13
-4.93566e-06
-1.84213e-06
-6.38153e-13
-6.25372e-06
1.08732e-13
-4.27239e-06
-1.24111e-06
6.11163e-08
3.07988e-06
-3.10706e-06
6.87646e-08
4.96647e-06
-4.78443e-06
5.41071e-08
4.58149e-06
-6.0096e-06
3.74237e-08
3.31119e-06
-6.68018e-06
2.40069e-08
1.63568e-06
-6.7018e-06
1.52627e-08
-3.44084e-07
-5.91936e-06
1.1145e-08
-2.62943e-06
-4.22046e-06
8.91966e-09
-4.93566e-06
-1.84213e-06
4.31218e-09
-6.25372e-06
-4.50052e-09
-4.27239e-06
-1.24607e-06
1.24712e-07
3.09273e-06
-3.10668e-06
1.32944e-07
4.97232e-06
-4.77548e-06
1.04074e-07
4.57906e-06
-5.99247e-06
7.37316e-08
3.30352e-06
-6.65692e-06
5.04296e-08
1.62596e-06
-6.67545e-06
3.64741e-08
-3.5273e-07
-5.89553e-06
3.08132e-08
-2.63036e-06
-4.20575e-06
2.74324e-08
-4.92528e-06
-1.8394e-06
1.47372e-08
-6.23456e-06
-1.383e-08
-4.25843e-06
-1.23095e-06
1.78641e-07
3.08683e-06
-3.04638e-06
1.73234e-07
4.92184e-06
-4.67034e-06
1.34715e-07
4.51955e-06
-5.85352e-06
9.89295e-08
3.25787e-06
-6.49886e-06
7.35151e-08
1.60725e-06
-6.51555e-06
6.08611e-08
-3.33781e-07
-5.75624e-06
5.88026e-08
-2.56136e-06
-4.11304e-06
5.7126e-08
-4.80256e-06
-1.8078e-06
3.29597e-08
-6.08685e-06
-3.22986e-08
-4.1716e-06
-1.09306e-06
1.64344e-07
2.89941e-06
-2.69622e-06
1.38796e-07
4.52608e-06
-4.13374e-06
1.07125e-07
4.14589e-06
-5.18765e-06
8.1895e-08
3.01273e-06
-5.76988e-06
6.5571e-08
1.53916e-06
-5.79628e-06
5.94836e-08
-1.89913e-07
-5.13185e-06
6.38812e-08
-2.17955e-06
-3.67813e-06
6.62702e-08
-4.1916e-06
-1.62708e-06
3.98991e-08
-5.38688e-06
-4.70202e-08
-3.7707e-06
-5.72963e-07
1.89636e-06
-1.45969e-06
2.77866e-06
-2.27054e-06
2.5435e-06
-2.8837e-06
1.91168e-06
-3.24417e-06
1.0927e-06
-3.29113e-06
1.24548e-07
-2.93808e-06
-1.01326e-06
-2.11437e-06
-2.19929e-06
-9.30238e-07
-2.99865e-06
-2.28971e-06
-8.01435e-07
-2.34529e-07
2.93233e-06
-1.93713e-06
-2.0083e-07
4.11519e-06
-2.93565e-06
-1.50126e-07
3.69215e-06
-3.70195e-06
-1.05737e-07
2.78371e-06
-4.21017e-06
-7.3489e-08
1.67441e-06
-4.39928e-06
-5.53816e-08
3.69039e-07
-4.12932e-06
-5.91824e-08
-1.22404e-06
-3.19516e-06
-6.92214e-08
-3.06424e-06
-1.5767e-06
-4.87474e-08
-4.56837e-06
3.96529e-08
-3.90606e-06
-1.50212e-06
-2.51514e-07
4.41851e-06
-3.55703e-06
-2.43408e-07
6.62357e-06
-5.33695e-06
-1.80583e-07
5.95627e-06
-6.65978e-06
-1.18432e-07
4.34825e-06
-7.48305e-06
-7.05413e-08
2.35948e-06
-7.73718e-06
-4.27423e-08
5.15812e-08
-7.18363e-06
-3.4808e-08
-2.75747e-06
-5.51892e-06
-3.97592e-08
-5.88578e-06
-2.71524e-06
-2.72004e-08
-8.2121e-06
2.70912e-08
-6.47338e-06
-1.68065e-06
-1.72881e-07
4.68885e-06
-4.00351e-06
-1.82116e-07
7.18341e-06
-6.01588e-06
-1.34394e-07
6.48572e-06
-7.50388e-06
-8.24739e-08
4.70992e-06
-8.42076e-06
-4.03927e-08
2.49398e-06
-8.68946e-06
-1.29024e-08
-9.49126e-08
-8.05331e-06
-2.12747e-09
-3.2302e-06
-6.17289e-06
-2.89698e-09
-6.71984e-06
-3.02352e-06
-1.29279e-09
-9.26213e-06
1.36965e-08
-7.18173e-06
-1.69615e-06
-8.36562e-08
4.69965e-06
-4.0725e-06
-9.25473e-08
7.2591e-06
-6.1396e-06
-6.81709e-08
6.57994e-06
-7.67138e-06
-4.00019e-08
4.79282e-06
-8.61725e-06
-1.63486e-08
2.54779e-06
-8.89887e-06
-2.83023e-10
-8.37338e-08
-8.25074e-06
7.3905e-09
-3.288e-06
-6.32197e-06
7.64015e-09
-6.86459e-06
-3.09034e-06
5.97471e-09
-9.47346e-06
5.85518e-09
-7.34093e-06
-1.68725e-06
5.49345e-13
4.68347e-06
-4.06793e-06
-9.45906e-13
7.25461e-06
-6.1448e-06
-3.80596e-13
6.59018e-06
-7.68732e-06
8.42106e-15
4.8137e-06
-8.64237e-06
-2.04986e-13
2.57439e-06
-8.93319e-06
-4.66293e-13
-5.35425e-08
-8.28659e-06
-5.73155e-13
-3.26864e-06
-6.35057e-06
-6.66556e-13
-6.86404e-06
-3.10269e-06
-2.55611e-13
-9.49563e-06
2.97622e-13
-7.36922e-06
-1.68725e-06
8.36574e-08
4.68347e-06
-4.06793e-06
9.25455e-08
7.25461e-06
-6.1448e-06
6.81701e-08
6.59018e-06
-7.68732e-06
4.00018e-08
4.8137e-06
-8.64237e-06
1.6348e-08
2.57439e-06
-8.93319e-06
2.82039e-10
-5.35426e-08
-8.28659e-06
-7.39167e-09
-3.26864e-06
-6.35057e-06
-7.64137e-09
-6.86404e-06
-3.10269e-06
-5.97533e-09
-9.49563e-06
-5.85453e-09
-7.36922e-06
-1.69615e-06
1.72882e-07
4.69965e-06
-4.0725e-06
1.82114e-07
7.2591e-06
-6.1396e-06
1.34393e-07
6.57994e-06
-7.67138e-06
8.24735e-08
4.79282e-06
-8.61725e-06
4.03916e-08
2.54779e-06
-8.89887e-06
1.29009e-08
-8.37336e-08
-8.25074e-06
2.12641e-09
-3.288e-06
-6.32197e-06
2.89608e-09
-6.86459e-06
-3.09034e-06
1.29228e-09
-9.47346e-06
-1.3696e-08
-7.34093e-06
-1.68065e-06
2.51515e-07
4.68885e-06
-4.00351e-06
2.43407e-07
7.18341e-06
-6.01588e-06
1.80583e-07
6.48573e-06
-7.50388e-06
1.18431e-07
4.70992e-06
-8.42076e-06
7.05398e-08
2.49398e-06
-8.68946e-06
4.27403e-08
-9.49124e-08
-8.05331e-06
3.48069e-08
-3.23019e-06
-6.17289e-06
3.97588e-08
-6.71984e-06
-3.02352e-06
2.72007e-08
-9.26213e-06
-2.70906e-08
-7.18173e-06
-1.50211e-06
2.3453e-07
4.41851e-06
-3.55703e-06
2.0083e-07
6.62357e-06
-5.33695e-06
1.50126e-07
5.95627e-06
-6.65978e-06
1.05737e-07
4.34825e-06
-7.48305e-06
7.34879e-08
2.35948e-06
-7.73718e-06
5.53795e-08
5.1581e-08
-7.18363e-06
5.9181e-08
-2.75747e-06
-5.51892e-06
6.9221e-08
-5.88578e-06
-2.71524e-06
4.87479e-08
-8.2121e-06
-3.96522e-08
-6.47338e-06
-8.01434e-07
2.93233e-06
-1.93713e-06
4.11519e-06
-2.93565e-06
3.69215e-06
-3.70195e-06
2.78371e-06
-4.21017e-06
1.67441e-06
-4.39928e-06
3.69038e-07
-4.12932e-06
-1.22404e-06
-3.19516e-06
-3.06424e-06
-1.57669e-06
-4.56837e-06
-3.90606e-06
-1.20819e-06
-3.39237e-07
4.47976e-06
-2.66315e-06
-2.82363e-07
5.85251e-06
-3.84688e-06
-1.87976e-07
5.06386e-06
-4.75916e-06
-1.01279e-07
3.79726e-06
-5.44687e-06
-3.42218e-08
2.39635e-06
-5.87623e-06
9.26855e-09
7.89132e-07
-5.86049e-06
2.5666e-08
-1.26545e-06
-4.96928e-06
1.05426e-08
-3.96598e-06
-2.84021e-06
-5.29481e-09
-6.69214e-06
1.86534e-10
-6.74645e-06
-2.18427e-06
-3.54822e-07
6.61837e-06
-4.82232e-06
-3.31891e-07
9.31114e-06
-6.9563e-06
-2.18504e-07
8.12077e-06
-8.54e-06
-1.03648e-07
5.93432e-06
-9.65367e-06
-1.19308e-08
3.45087e-06
-1.02488e-05
5.31707e-08
6.02787e-07
-1.00633e-05
8.34542e-08
-3.00073e-06
-8.41132e-06
6.90306e-08
-7.59625e-06
-4.71966e-06
3.40799e-08
-1.19431e-05
-1.09426e-10
-1.11927e-05
-2.41632e-06
-2.38256e-07
6.9886e-06
-5.39108e-06
-2.42101e-07
1.00684e-05
-7.80918e-06
-1.58207e-07
8.84352e-06
-9.59483e-06
-6.68828e-08
6.45881e-06
-1.08326e-05
9.09834e-09
3.71076e-06
-1.14797e-05
6.43099e-08
5.41019e-07
-1.12409e-05
9.28569e-08
-3.47836e-06
-9.36867e-06
8.5159e-08
-8.60824e-06
-5.23212e-06
5.11196e-08
-1.34157e-05
3.95062e-09
-1.24179e-05
-2.42853e-06
-1.13355e-07
7.00328e-06
-5.46418e-06
-1.20982e-07
1.01736e-05
-7.94793e-06
-7.89329e-08
8.98441e-06
-9.78936e-06
-3.08738e-08
6.59824e-06
-1.107e-05
1.02268e-08
3.82733e-06
-1.17435e-05
4.00707e-08
6.14016e-07
-1.15126e-05
5.63428e-08
-3.48238e-06
-9.60216e-06
5.30044e-08
-8.74291e-06
-5.36316e-06
3.35955e-08
-1.36949e-05
4.4599e-09
-1.27046e-05
-2.41249e-06
2.96166e-13
6.98261e-06
-5.44947e-06
-4.78303e-13
1.01706e-05
-7.94416e-06
-1.50766e-13
9.00593e-06
-9.80018e-06
-2.5756e-15
6.63886e-06
-1.10966e-05
-2.27146e-13
3.88103e-06
-1.17835e-05
-2.19456e-13
6.73404e-07
-1.15656e-05
2.92553e-13
-3.43019e-06
-9.65577e-06
7.29349e-13
-8.72086e-06
-5.39775e-06
7.94093e-13
-1.372e-05
5.32095e-13
-1.27625e-05
-2.41249e-06
1.13356e-07
6.98261e-06
-5.44947e-06
1.20981e-07
1.01706e-05
-7.94416e-06
7.89327e-08
9.00593e-06
-9.80018e-06
3.08738e-08
6.63886e-06
-1.10966e-05
-1.02274e-08
3.88103e-06
-1.17835e-05
-4.00711e-08
6.73404e-07
-1.15656e-05
-5.63421e-08
-3.43019e-06
-9.65577e-06
-5.3003e-08
-8.72086e-06
-5.39775e-06
-3.3594e-08
-1.372e-05
-4.45842e-09
-1.27625e-05
-2.42853e-06
2.38257e-07
7.00328e-06
-5.46418e-06
2.421e-07
1.01736e-05
-7.94793e-06
1.58207e-07
8.98441e-06
-9.78936e-06
6.68825e-08
6.59824e-06
-1.107e-05
-9.0992e-09
3.82732e-06
-1.17435e-05
-6.43105e-08
6.14017e-07
-1.15126e-05
-9.28558e-08
-3.48238e-06
-9.60216e-06
-8.51571e-08
-8.74291e-06
-5.36316e-06
-5.11179e-08
-1.36949e-05
-3.94938e-09
-1.27046e-05
-2.41632e-06
3.54823e-07
6.9886e-06
-5.39108e-06
3.31891e-07
1.00684e-05
-7.80918e-06
2.18504e-07
8.84352e-06
-9.59483e-06
1.03647e-07
6.45881e-06
-1.08326e-05
1.19297e-08
3.71076e-06
-1.14797e-05
-5.31717e-08
5.4102e-07
-1.12409e-05
-8.34527e-08
-3.47836e-06
-9.36867e-06
-6.90279e-08
-8.60824e-06
-5.23212e-06
-3.40769e-08
-1.34157e-05
1.102e-10
-1.24179e-05
-2.18427e-06
3.39238e-07
6.61837e-06
-4.82232e-06
2.82364e-07
9.31115e-06
-6.95629e-06
1.87977e-07
8.12077e-06
-8.54e-06
1.01279e-07
5.93432e-06
-9.65367e-06
3.42206e-08
3.45087e-06
-1.02488e-05
-9.26952e-09
6.02788e-07
-1.00633e-05
-2.56649e-08
-3.00073e-06
-8.41132e-06
-1.05401e-08
-7.59625e-06
-4.71966e-06
5.29913e-09
-1.19431e-05
-1.85397e-10
-1.11927e-05
-1.20819e-06
4.47976e-06
-2.66315e-06
5.85251e-06
-3.84688e-06
5.06386e-06
-4.75915e-06
3.79726e-06
-5.44687e-06
2.39635e-06
-5.87623e-06
7.89131e-07
-5.86049e-06
-1.26545e-06
-4.96928e-06
-3.96598e-06
-2.84021e-06
-6.69214e-06
-6.74645e-06
-1.97834e-06
-4.95931e-07
6.95403e-06
-3.71098e-06
-3.81526e-07
7.96668e-06
-4.90344e-06
-1.86173e-07
6.44249e-06
-5.80234e-06
-8.78458e-09
4.70495e-06
-6.58486e-06
1.30847e-07
3.04802e-06
-7.30541e-06
2.46053e-07
1.26363e-06
-7.7757e-06
3.349e-07
-1.13006e-06
-7.29473e-06
3.29833e-07
-4.77679e-06
-4.86107e-06
2.1538e-07
-9.34118e-06
-4.62067e-08
-1.15613e-05
-3.357e-06
-5.01012e-07
9.98045e-06
-6.55199e-06
-4.36949e-07
1.25616e-05
-8.76633e-06
-2.20256e-07
1.03692e-05
-1.03148e-05
-5.43801e-09
7.47945e-06
-1.15004e-05
1.73227e-07
4.59407e-06
-1.24185e-05
3.18077e-07
1.44887e-06
-1.28064e-05
4.19452e-07
-2.69736e-06
-1.1647e-05
4.12637e-07
-8.83847e-06
-7.46888e-06
2.68549e-07
-1.61744e-05
-4.10689e-08
-1.86668e-05
-3.64979e-06
-3.26309e-07
1.04637e-05
-7.2492e-06
-3.12183e-07
1.3543e-05
-9.77779e-06
-1.62035e-07
1.13139e-05
-1.15289e-05
-2.37486e-09
8.20686e-06
-1.2826e-05
1.35159e-07
5.04595e-06
-1.37792e-05
2.4471e-07
1.56752e-06
-1.41216e-05
3.13612e-07
-3.03014e-06
-1.27572e-05
3.03531e-07
-9.86348e-06
-8.10389e-06
1.93941e-07
-1.79944e-05
-1.64718e-08
-2.05464e-05
-3.65002e-06
-1.52047e-07
1.0479e-05
-7.31161e-06
-1.5403e-07
1.36771e-05
-9.9128e-06
-8.17925e-08
1.15054e-05
-1.17255e-05
-1.22949e-09
8.40977e-06
-1.30689e-05
6.96167e-08
5.23628e-06
-1.40578e-05
1.25333e-07
1.7223e-06
-1.44274e-05
1.57829e-07
-2.95701e-06
-1.30502e-05
1.50822e-07
-9.96741e-06
-8.29847e-06
9.59835e-08
-1.83487e-05
-2.64846e-09
-2.10169e-05
-3.62169e-06
7.15282e-15
1.04522e-05
-7.27803e-06
-2.13266e-13
1.36729e-05
-9.89051e-06
-2.8361e-13
1.15366e-05
-1.17213e-05
-4.64494e-13
8.46845e-06
-1.30853e-05
-5.76268e-13
5.31457e-06
-1.40981e-05
-1.87888e-14
1.81155e-06
-1.44947e-05
8.23611e-13
-2.8757e-06
-1.31338e-05
6.97769e-13
-9.93092e-06
-8.36595e-06
-9.71379e-13
-1.8392e-05
4.29725e-13
-2.11311e-05
-3.62169e-06
1.52047e-07
1.04522e-05
-7.27803e-06
1.5403e-07
1.36729e-05
-9.89051e-06
8.17919e-08
1.15366e-05
-1.17213e-05
1.22844e-09
8.46845e-06
-1.30853e-05
-6.96179e-08
5.31457e-06
-1.40981e-05
-1.25333e-07
1.81155e-06
-1.44947e-05
-1.57828e-07
-2.8757e-06
-1.31338e-05
-1.50821e-07
-9.93092e-06
-8.36595e-06
-9.59845e-08
-1.8392e-05
2.64938e-09
-2.11311e-05
-3.65002e-06
3.2631e-07
1.0479e-05
-7.31162e-06
3.12183e-07
1.36771e-05
-9.9128e-06
1.62034e-07
1.15054e-05
-1.17255e-05
2.37325e-09
8.40977e-06
-1.30689e-05
-1.35161e-07
5.23628e-06
-1.40578e-05
-2.4471e-07
1.72231e-06
-1.44274e-05
-3.1361e-07
-2.95701e-06
-1.30502e-05
-3.0353e-07
-9.96741e-06
-8.29847e-06
-1.93942e-07
-1.83487e-05
1.64715e-08
-2.10169e-05
-3.64979e-06
5.01013e-07
1.04637e-05
-7.2492e-06
4.3695e-07
1.3543e-05
-9.77779e-06
2.20255e-07
1.13139e-05
-1.15289e-05
5.43594e-09
8.20686e-06
-1.2826e-05
-1.7323e-07
5.04596e-06
-1.37792e-05
-3.18077e-07
1.56753e-06
-1.41216e-05
-4.1945e-07
-3.03014e-06
-1.27572e-05
-4.12636e-07
-9.86348e-06
-8.1039e-06
-2.68551e-07
-1.79944e-05
4.1067e-08
-2.05464e-05
-3.357e-06
4.95932e-07
9.98045e-06
-6.55199e-06
3.81528e-07
1.25616e-05
-8.76633e-06
1.86174e-07
1.03692e-05
-1.03148e-05
8.78254e-09
7.47945e-06
-1.15004e-05
-1.3085e-07
4.59408e-06
-1.24185e-05
-2.46055e-07
1.44887e-06
-1.28064e-05
-3.34898e-07
-2.69736e-06
-1.1647e-05
-3.29831e-07
-8.83847e-06
-7.46888e-06
-2.1538e-07
-1.61744e-05
4.62049e-08
-1.86668e-05
-1.97834e-06
6.95403e-06
-3.71098e-06
7.96668e-06
-4.90343e-06
6.44248e-06
-5.80234e-06
4.70495e-06
-6.58486e-06
3.04802e-06
-7.30542e-06
1.26364e-06
-7.77571e-06
-1.13006e-06
-7.29473e-06
-4.77679e-06
-4.86107e-06
-9.34118e-06
-1.15613e-05
-3.41631e-06
-7.00079e-07
1.10704e-05
-4.73576e-06
-4.76344e-07
9.76248e-06
-5.19732e-06
-9.32454e-08
6.9973e-06
-5.50626e-06
2.25514e-07
4.78837e-06
-5.97949e-06
4.76775e-07
3.04447e-06
-6.76149e-06
7.18909e-07
1.32673e-06
-7.81096e-06
9.70255e-07
-1.05084e-06
-8.26217e-06
1.05196e-06
-5.37754e-06
-6.63506e-06
8.23176e-07
-1.17915e-05
-1.78783e-07
-1.80176e-05
-5.44901e-06
-6.90706e-07
1.54201e-05
-8.14867e-06
-5.52819e-07
1.53377e-05
-9.16967e-06
-1.60609e-07
1.14576e-05
-9.58427e-06
2.03185e-07
7.91637e-06
-9.95822e-06
5.04958e-07
4.93984e-06
-1.0534e-05
7.79506e-07
1.96405e-06
-1.12805e-05
1.01947e-06
-2.00012e-06
-1.1176e-05
1.05934e-06
-8.95034e-06
-8.45439e-06
7.30927e-07
-1.88038e-05
-1.9858e-07
-2.71014e-05
-5.82953e-06
-4.38968e-07
1.60415e-05
-8.91456e-06
-3.953e-07
1.64705e-05
-1.01428e-05
-1.4443e-07
1.25259e-05
-1.06101e-05
1.11294e-07
8.76608e-06
-1.09227e-05
3.31261e-07
5.53228e-06
-1.13619e-05
5.22028e-07
2.26414e-06
-1.19349e-05
6.65466e-07
-2.10305e-06
-1.16665e-05
6.66215e-07
-9.73879e-06
-8.70686e-06
4.28861e-07
-2.0652e-05
-1.11273e-07
-2.93406e-05
-5.81063e-06
-2.0102e-07
1.60517e-05
-8.93407e-06
-1.94839e-07
1.66001e-05
-1.0218e-05
-8.04605e-08
1.27253e-05
-1.07232e-05
4.35283e-08
8.98272e-06
-1.1051e-05
1.52923e-07
5.74249e-06
-1.14976e-05
2.4493e-07
2.44595e-06
-1.20879e-05
3.07224e-07
-2.00848e-06
-1.18516e-05
3.00111e-07
-9.83755e-06
-8.87741e-06
1.88528e-07
-2.10826e-05
-4.10717e-08
-2.99645e-05
-5.76466e-06
-5.78009e-13
1.60159e-05
-8.86925e-06
-6.87798e-13
1.65827e-05
-1.0162e-05
-1.1473e-12
1.27489e-05
-1.06859e-05
-1.36093e-12
9.03582e-06
-1.10347e-05
-8.53341e-13
5.81628e-06
-1.15086e-05
5.54526e-13
2.5304e-06
-1.21363e-05
1.15056e-12
-1.94071e-06
-1.19414e-05
-6.0407e-13
-9.8258e-06
-8.97663e-06
-1.52149e-13
-2.11682e-05
3.94042e-13
-3.01488e-05
-5.76466e-06
2.01019e-07
1.60159e-05
-8.86925e-06
1.94838e-07
1.65827e-05
-1.0162e-05
8.04582e-08
1.27489e-05
-1.06859e-05
-4.3531e-08
9.03582e-06
-1.10347e-05
-1.52925e-07
5.81628e-06
-1.15086e-05
-2.44929e-07
2.5304e-06
-1.21363e-05
-3.07222e-07
-1.94071e-06
-1.19414e-05
-3.00111e-07
-9.8258e-06
-8.97663e-06
-1.88528e-07
-2.11682e-05
4.10725e-08
-3.01488e-05
-5.81063e-06
4.38967e-07
1.60517e-05
-8.93407e-06
3.95299e-07
1.66001e-05
-1.0218e-05
1.44428e-07
1.27253e-05
-1.07232e-05
-1.11297e-07
8.98272e-06
-1.1051e-05
-3.31262e-07
5.74249e-06
-1.14976e-05
-5.22027e-07
2.44596e-06
-1.20879e-05
-6.65464e-07
-2.00848e-06
-1.18516e-05
-6.66216e-07
-9.83755e-06
-8.87741e-06
-4.28862e-07
-2.10826e-05
1.11272e-07
-2.99645e-05
-5.82953e-06
6.90706e-07
1.60415e-05
-8.91456e-06
5.52819e-07
1.64705e-05
-1.01428e-05
1.60607e-07
1.25259e-05
-1.06101e-05
-2.03187e-07
8.76608e-06
-1.09227e-05
-5.04959e-07
5.53229e-06
-1.13619e-05
-7.79504e-07
2.26414e-06
-1.19349e-05
-1.01947e-06
-2.10305e-06
-1.16665e-05
-1.05934e-06
-9.73879e-06
-8.70686e-06
-7.3093e-07
-2.0652e-05
1.9858e-07
-2.93406e-05
-5.44902e-06
7.0008e-07
1.54201e-05
-8.14867e-06
4.76345e-07
1.53377e-05
-9.16967e-06
9.3245e-08
1.14576e-05
-9.58427e-06
-2.25516e-07
7.91637e-06
-9.95822e-06
-4.76776e-07
4.93985e-06
-1.0534e-05
-7.18908e-07
1.96405e-06
-1.12805e-05
-9.70252e-07
-2.00012e-06
-1.1176e-05
-1.05196e-06
-8.95034e-06
-8.45439e-06
-8.2318e-07
-1.88038e-05
1.78782e-07
-2.71014e-05
-3.41631e-06
1.10704e-05
-4.73575e-06
9.76248e-06
-5.19732e-06
6.9973e-06
-5.50626e-06
4.78837e-06
-5.97949e-06
3.04448e-06
-6.76149e-06
1.32673e-06
-7.81096e-06
-1.05084e-06
-8.26217e-06
-5.37754e-06
-6.63506e-06
-1.17915e-05
-1.80176e-05
-3.49824e-06
-1.14674e-06
1.57154e-05
-1.83043e-06
-6.87143e-07
8.78181e-06
3.59572e-07
-3.58156e-08
4.84311e-06
1.78012e-06
4.44369e-07
2.92346e-06
2.3606e-06
7.88033e-07
1.67596e-06
1.95753e-06
1.12407e-06
6.0572e-07
4.22959e-07
1.51815e-06
-1.03441e-06
-2.09375e-06
1.65932e-06
-4.52015e-06
-3.63104e-06
1.31738e-06
-1.15716e-05
-1.13631e-06
-2.05123e-05
-5.75846e-06
-1.02688e-06
2.10587e-05
-3.70352e-06
-7.85975e-07
1.33816e-05
-3.49042e-07
-1.72019e-07
8.2393e-06
2.39522e-06
3.33917e-07
5.28256e-06
4.2173e-06
7.37999e-07
3.1678e-06
4.87654e-06
1.10966e-06
1.31922e-06
4.10796e-06
1.48559e-06
-1.19898e-06
1.55965e-06
1.56454e-06
-6.30724e-06
-2.53925e-07
9.43625e-07
-1.66164e-05
-8.86602e-07
-2.7605e-05
-6.14298e-06
-6.12971e-07
2.17706e-05
-4.07644e-06
-5.52655e-07
1.41707e-05
-5.32361e-07
-1.96032e-07
9.00584e-06
2.51987e-06
1.45502e-07
5.90227e-06
4.73721e-06
4.35656e-07
3.61728e-06
5.82569e-06
6.93463e-07
1.59185e-06
5.41756e-06
9.23972e-07
-1.13331e-06
3.00194e-06
9.31288e-07
-6.68992e-06
5.79727e-07
5.33164e-07
-1.78193e-05
-4.40062e-07
-2.92074e-05
-6.0664e-06
-2.70376e-07
2.17755e-05
-3.94802e-06
-2.69103e-07
1.41981e-05
-3.91407e-07
-1.16336e-07
9.08897e-06
2.68414e-06
4.37944e-08
6.00889e-06
4.95025e-06
1.86042e-07
3.72599e-06