/*--------------------------------*- C++ -*----------------------------------*\
  =========                 |
  \\      /  F ield         | OpenFOAM: The Open Source CFD Toolbox
   \\    /   O peration     | Website:  https://openfoam.org
    \\  /    A nd           | Version:  9
     \\/     M anipulation  |
\*---------------------------------------------------------------------------*/
FoamFile
{
    format      ascii;
    class       volVectorField;
    location    "0.99";
    object      U;
}
// * * * * * * * * * * * * * * * * * * * * * * * * * * * * * * * * * * * * * //

dimensions      [0 1 -1 0 0 0 0];

internalField   nonuniform List<vector> 
1000
(
(3.70214e-05 -0.000519571 0.000339689)
(-0.00138566 -0.000491387 0.00107995)
(-0.00456224 -0.000448574 0.00144599)
(-0.00796897 -0.000558487 0.00160956)
(-0.010899 -0.000868756 0.00158128)
(-0.012378 -0.00133956 0.00126859)
(-0.0114581 -0.00180495 0.000660601)
(-0.00788683 -0.00197169 -1.0763e-05)
(-0.00262335 -0.00156807 -0.000209741)
(0.000115559 -0.000469745 0.000387209)
(-0.000141702 -0.00185133 0.000596931)
(-0.00343002 -0.00229956 0.00232268)
(-0.0101732 -0.00238529 0.00309248)
(-0.017116 -0.00271856 0.00319693)
(-0.0227461 -0.00348388 0.00270598)
(-0.0252574 -0.00457757 0.0015234)
(-0.0230086 -0.00557157 -0.000205447)
(-0.0157114 -0.00575732 -0.0017423)
(-0.00545233 -0.0045525 -0.00176019)
(-5.00203e-08 -0.0016838 0.000245543)
(-0.000346184 -0.00278504 0.000280467)
(-0.00501455 -0.00392474 0.00237027)
(-0.0141622 -0.00425108 0.00328087)
(-0.0233296 -0.00469628 0.00323691)
(-0.0304701 -0.00555238 0.00230514)
(-0.0332769 -0.00669943 0.000417854)
(-0.0297463 -0.00758859 -0.0021084)
(-0.0197382 -0.00750966 -0.00403064)
(-0.0062847 -0.00591856 -0.00347823)
(0.000362495 -0.00251533 -3.73147e-05)
(-0.000498302 -0.00236771 -0.000145394)
(-0.00611506 -0.00348068 0.00200284)
(-0.0168602 -0.00381618 0.00293189)
(-0.0274403 -0.00417267 0.00275356)
(-0.0354472 -0.00479895 0.0015065)
(-0.0382077 -0.00560031 -0.000846044)
(-0.0335656 -0.00613603 -0.00384494)
(-0.0216664 -0.00594216 -0.0058738)
(-0.006225 -0.00467992 -0.0047421)
(0.000844874 -0.00210634 -0.000233648)
(-0.000581724 -0.000915873 -0.000412009)
(-0.00668762 -0.0013681 0.00171929)
(-0.0182372 -0.00150624 0.00263853)
(-0.0295047 -0.00163884 0.00238392)
(-0.0378928 -0.00186052 0.000972758)
(-0.0405598 -0.00213494 -0.00161401)
(-0.0352911 -0.00231051 -0.00480863)
(-0.0224122 -0.00221732 -0.00683634)
(-0.00602452 -0.00174732 -0.00536657)
(0.00114986 -0.000806211 -0.000322352)
(-0.000581724 0.000915941 -0.000412008)
(-0.00668762 0.00136816 0.00171929)
(-0.0182372 0.00150629 0.00263853)
(-0.0295047 0.00163887 0.00238392)
(-0.0378928 0.00186055 0.000972758)
(-0.0405598 0.00213496 -0.00161401)
(-0.0352911 0.00231053 -0.00480863)
(-0.0224122 0.00221733 -0.00683634)
(-0.00602452 0.00174733 -0.00536657)
(0.00114986 0.000806219 -0.000322352)
(-0.0004983 0.00236778 -0.000145391)
(-0.00611507 0.00348074 0.00200284)
(-0.0168603 0.00381623 0.00293189)
(-0.0274403 0.0041727 0.00275356)
(-0.0354472 0.00479897 0.0015065)
(-0.0382077 0.00560033 -0.000846045)
(-0.0335656 0.00613604 -0.00384494)
(-0.0216664 0.00594217 -0.0058738)
(-0.006225 0.00467992 -0.0047421)
(0.000844873 0.00210634 -0.000233648)
(-0.000346176 0.00278514 0.000280475)
(-0.00501456 0.00392481 0.00237028)
(-0.0141622 0.00425112 0.00328087)
(-0.0233297 0.00469631 0.00323691)
(-0.0304701 0.0055524 0.00230514)
(-0.0332769 0.00669944 0.000417853)
(-0.0297463 0.0075886 -0.0021084)
(-0.0197382 0.00750967 -0.00403064)
(-0.00628471 0.00591857 -0.00347823)
(0.000362493 0.00251534 -3.7315e-05)
(-0.000141702 0.00185146 0.000596928)
(-0.00343005 0.00229962 0.00232268)
(-0.0101732 0.00238532 0.00309248)
(-0.017116 0.00271858 0.00319693)
(-0.0227462 0.00348389 0.00270598)
(-0.0252574 0.00457758 0.0015234)
(-0.0230086 0.00557158 -0.000205447)
(-0.0157114 0.00575733 -0.0017423)
(-0.00545234 0.00455251 -0.00176019)
(-5.24125e-08 0.0016838 0.000245543)
(3.6975e-05 0.000519629 0.000339643)
(-0.00138577 0.000491402 0.00107994)
(-0.00456233 0.000448581 0.00144598)
(-0.00796903 0.000558492 0.00160956)
(-0.0108991 0.00086876 0.00158128)
(-0.012378 0.00133957 0.00126859)
(-0.0114581 0.00180496 0.0006606)
(-0.00788684 0.00197169 -1.07639e-05)
(-0.00262336 0.00156808 -0.000209741)
(0.000115557 0.000469747 0.000387209)
(-0.000619439 -0.00148297 0.00348435)
(-0.00408868 -0.00191829 0.00700188)
(-0.0101439 -0.00195506 0.00839059)
(-0.0164034 -0.00197821 0.00860075)
(-0.0216713 -0.00214949 0.00772961)
(-0.0243553 -0.00249221 0.00554506)
(-0.0228875 -0.00284784 0.00217111)
(-0.0166219 -0.00286349 -0.00132021)
(-0.00681575 -0.00210386 -0.00274594)
(-0.000651591 -0.000323556 -0.000487593)
(-0.00196005 -0.00440788 0.00583141)
(-0.0108787 -0.00622385 0.013319)
(-0.0253649 -0.00651466 0.0160016)
(-0.0395475 -0.00659524 0.0154254)
(-0.0505339 -0.00699723 0.011957)
(-0.0551892 -0.00775404 0.00552501)
(-0.0508172 -0.0084493 -0.00290587)
(-0.0366632 -0.0081996 -0.0101882)
(-0.0158119 -0.00612137 -0.0111073)
(-0.0021464 -0.00166246 -0.00288652)
(-0.00306064 -0.00589892 0.00563374)
(-0.0161527 -0.00889285 0.0145044)
(-0.0366763 -0.00946278 0.0174297)
(-0.0559852 -0.00954381 0.0157799)
(-0.0700591 -0.00990636 0.00997217)
(-0.0750155 -0.0105803 0.000222959)
(-0.0677902 -0.0110411 -0.0115599)
(-0.0479717 -0.0104169 -0.0204818)
(-0.0201724 -0.00791429 -0.0192799)
(-0.00252248 -0.00287584 -0.00516346)
(-0.00380197 -0.0047855 0.00474567)
(-0.0197395 -0.00742383 0.0138141)
(-0.0442723 -0.0079418 0.0165572)
(-0.0667179 -0.00797223 0.0139814)
(-0.0823529 -0.00816036 0.00648748)
(-0.0869145 -0.00853322 -0.005405)
(-0.0773346 -0.00866164 -0.0190637)
(-0.0537607 -0.00804758 -0.0284134)
(-0.0218611 -0.00618403 -0.0250761)
(-0.00235664 -0.00250414 -0.00667732)
(-0.00417287 -0.00181611 0.00411506)
(-0.0215543 -0.00284882 0.0130967)
(-0.048092 -0.00305209 0.0156563)
(-0.0720178 -0.00305326 0.0125608)
(-0.0882709 -0.00309944 0.0042023)
(-0.0924393 -0.00320389 -0.00869952)
(-0.08155 -0.00321004 -0.0231192)
(-0.0561214 -0.00296252 -0.0324604)
(-0.0223589 -0.0022916 -0.0279013)
(-0.00216438 -0.000971661 -0.00738146)
(-0.00417287 0.00181617 0.00411506)
(-0.0215543 0.00284886 0.0130967)
(-0.048092 0.00305212 0.0156563)
(-0.0720178 0.00305328 0.0125608)
(-0.0882709 0.00309945 0.0042023)
(-0.0924393 0.0032039 -0.00869952)
(-0.0815501 0.00321005 -0.0231192)
(-0.0561214 0.00296253 -0.0324604)
(-0.0223589 0.00229161 -0.0279013)
(-0.00216438 0.000971668 -0.00738146)
(-0.00380197 0.00478556 0.00474566)
(-0.0197395 0.00742387 0.0138141)
(-0.0442723 0.00794183 0.0165572)
(-0.0667179 0.00797225 0.0139814)
(-0.0823529 0.00816038 0.00648748)
(-0.0869145 0.00853323 -0.005405)
(-0.0773346 0.00866165 -0.0190637)
(-0.0537607 0.00804759 -0.0284134)
(-0.0218611 0.00618404 -0.0250761)
(-0.00235664 0.00250415 -0.00667732)
(-0.00306064 0.00589899 0.00563374)
(-0.0161527 0.00889289 0.0145044)
(-0.0366764 0.00946281 0.0174297)
(-0.0559852 0.00954382 0.0157799)
(-0.0700591 0.00990637 0.00997216)
(-0.0750155 0.0105803 0.000222957)
(-0.0677903 0.0110411 -0.0115599)
(-0.0479717 0.0104169 -0.0204818)
(-0.0201724 0.0079143 -0.0192799)
(-0.00252248 0.00287585 -0.00516346)
(-0.00196004 0.00440794 0.00583138)
(-0.0108787 0.00622387 0.0133189)
(-0.0253649 0.00651468 0.0160016)
(-0.0395475 0.00659525 0.0154254)
(-0.0505339 0.00699724 0.011957)
(-0.0551893 0.00775405 0.00552501)
(-0.0508172 0.00844931 -0.00290587)
(-0.0366632 0.00819961 -0.0101883)
(-0.0158119 0.00612137 -0.0111073)
(-0.0021464 0.00166246 -0.00288652)
(-0.000619451 0.00148299 0.00348425)
(-0.00408873 0.00191829 0.00700184)
(-0.0101439 0.00195506 0.00839057)
(-0.0164035 0.00197821 0.00860074)
(-0.0216713 0.0021495 0.0077296)
(-0.0243553 0.00249221 0.00554506)
(-0.0228876 0.00284784 0.00217111)
(-0.0166219 0.00286349 -0.00132021)
(-0.00681575 0.00210386 -0.00274594)
(-0.000651592 0.000323559 -0.000487595)
(-0.00109343 -0.00230591 0.0102049)
(-0.00596247 -0.00305974 0.0183008)
(-0.0138658 -0.00303316 0.0209552)
(-0.0220056 -0.00279457 0.020714)
(-0.0292263 -0.0026422 0.0179306)
(-0.033721 -0.00272491 0.0122264)
(-0.033271 -0.00296411 0.00386774)
(-0.0261167 -0.00300995 -0.00495795)
(-0.0126113 -0.00223078 -0.00939627)
(-0.00218399 -5.29065e-05 -0.00463587)
(-0.0034761 -0.00653856 0.0170484)
(-0.0167976 -0.00922701 0.0336022)
(-0.0369207 -0.00922962 0.0384057)
(-0.0562476 -0.00842576 0.0356737)
(-0.0715946 -0.00775441 0.0264596)
(-0.0793442 -0.00758271 0.0108792)
(-0.0757626 -0.00772621 -0.00904779)
(-0.0583362 -0.00750268 -0.0269781)
(-0.0287313 -0.00568424 -0.0313594)
(-0.0054716 -0.000953814 -0.0131008)
(-0.00545066 -0.00839499 0.0181723)
(-0.0254663 -0.012473 0.0375985)
(-0.054616 -0.0125237 0.0424111)
(-0.0812031 -0.0112554 0.0367932)
(-0.100694 -0.00998706 0.0221122)
(-0.108739 -0.00917637 -0.000737837)
(-0.101425 -0.0087049 -0.027791)
(-0.0765202 -0.00813895 -0.0496135)
(-0.037005 -0.00640691 -0.0503933)
(-0.00676818 -0.00196962 -0.0196665)
(-0.00679786 -0.00664815 0.0175103)
(-0.0313968 -0.0101144 0.0373717)
(-0.0664926 -0.0101359 0.0414378)
(-0.0973285 -0.00897647 0.033451)
(-0.118589 -0.00772829 0.0150063)
(-0.125777 -0.00676495 -0.0122071)
(-0.115307 -0.00609604 -0.0429074)
(-0.0856132 -0.00559104 -0.0657742)
(-0.0405959 -0.00455396 -0.0629221)
(-0.00704305 -0.00172871 -0.0237172)
(-0.00747268 -0.00249372 0.0168432)
(-0.0343828 -0.00382809 0.0365468)
(-0.0724058 -0.00382777 0.0400377)
(-0.10515 -0.00335925 0.030759)
(-0.126953 -0.00284057 0.0104652)
(-0.133379 -0.00241668 -0.0186604)
(-0.121177 -0.00212002 -0.0507024)
(-0.0892214 -0.00193097 -0.0736078)
(-0.0418538 -0.00160795 -0.0687417)
(-0.00703656 -0.000669315 -0.0255295)
(-0.00747268 0.00249376 0.0168432)
(-0.0343828 0.00382812 0.0365468)
(-0.0724058 0.0038278 0.0400377)
(-0.10515 0.00335927 0.030759)
(-0.126953 0.00284058 0.0104652)
(-0.133379 0.0024167 -0.0186604)
(-0.121177 0.00212003 -0.0507024)
(-0.0892214 0.00193098 -0.0736078)
(-0.0418538 0.00160795 -0.0687417)
(-0.00703656 0.000669321 -0.0255295)
(-0.00679786 0.0066482 0.0175103)
(-0.0313968 0.0101144 0.0373716)
(-0.0664926 0.010136 0.0414378)
(-0.0973285 0.00897648 0.033451)
(-0.118589 0.0077283 0.0150063)
(-0.125777 0.00676496 -0.0122071)
(-0.115307 0.00609604 -0.0429074)
(-0.0856132 0.00559105 -0.0657742)
(-0.0405959 0.00455397 -0.0629221)
(-0.00704305 0.00172871 -0.0237172)
(-0.00545066 0.00839503 0.0181722)
(-0.0254663 0.0124731 0.0375984)
(-0.054616 0.0125237 0.0424111)
(-0.0812031 0.0112554 0.0367932)
(-0.100694 0.00998707 0.0221122)
(-0.108739 0.00917638 -0.000737839)
(-0.101425 0.0087049 -0.027791)
(-0.0765202 0.00813896 -0.0496135)
(-0.037005 0.00640691 -0.0503933)
(-0.00676819 0.00196963 -0.0196665)
(-0.0034761 0.00653858 0.0170483)
(-0.0167976 0.00922702 0.0336022)
(-0.0369207 0.00922963 0.0384057)
(-0.0562476 0.00842577 0.0356737)
(-0.0715946 0.00775442 0.0264596)
(-0.0793442 0.00758272 0.0108792)
(-0.0757626 0.00772622 -0.00904779)
(-0.0583362 0.00750268 -0.0269781)
(-0.0287313 0.00568425 -0.0313594)
(-0.0054716 0.000953818 -0.0131008)
(-0.00109344 0.00230591 0.0102048)
(-0.00596248 0.00305974 0.0183007)
(-0.0138659 0.00303316 0.0209551)
(-0.0220056 0.00279457 0.020714)
(-0.0292263 0.00264221 0.0179306)
(-0.033721 0.00272491 0.0122264)
(-0.033271 0.00296411 0.00386774)
(-0.0261167 0.00300995 -0.00495795)
(-0.0126113 0.00223078 -0.00939627)
(-0.00218399 5.29082e-05 -0.00463588)
(-0.00145559 -0.0030147 0.019058)
(-0.00727202 -0.00391998 0.0324969)
(-0.0163623 -0.00362063 0.0361633)
(-0.0259546 -0.00287001 0.0350203)
(-0.0353929 -0.00213594 0.0298806)
(-0.0429498 -0.00175174 0.0200138)
(-0.0455883 -0.00184767 0.00532704)
(-0.0394967 -0.00223071 -0.0112502)
(-0.02262 -0.00197587 -0.0213536)
(-0.00549206 0.000132934 -0.0136511)
(-0.00467522 -0.00834633 0.0318961)
(-0.0213015 -0.0114013 0.05913)
(-0.0455263 -0.0104635 0.0656162)
(-0.0689 -0.00794975 0.0597696)
(-0.0888416 -0.00530841 0.0437222)
(-0.101814 -0.00347237 0.0174176)
(-0.102777 -0.00285939 -0.0170637)
(-0.0858533 -0.00344055 -0.0508224)
(-0.0487507 -0.00350356 -0.0638536)
(-0.0117918 -0.000161427 -0.0331361)
(-0.00734052 -0.0104569 0.0351618)
(-0.0326554 -0.0149017 0.0671232)
(-0.0681638 -0.0134999 0.0732529)
(-0.100248 -0.00967428 0.0625372)
(-0.125022 -0.00545858 0.0379117)
(-0.138387 -0.00213938 0.000518367)
(-0.135355 -0.00057974 -0.0451714)
(-0.110229 -0.00115595 -0.0862116)
(-0.0615742 -0.00228713 -0.0959316)
(-0.0144812 -0.000657569 -0.0460143)
(-0.00915477 -0.00814233 0.0352909)
(-0.040374 -0.0118237 0.0681176)
(-0.0831442 -0.0105614 0.0728661)
(-0.119945 -0.00720016 0.0583976)
(-0.146231 -0.0034457 0.0283332)
(-0.158194 -0.000401496 -0.0150131)
(-0.151539 0.00101488 -0.0656164)
(-0.121359 0.000445161 -0.108698)
(-0.0670063 -0.000930843 -0.114742)
(-0.0154139 -0.000560384 -0.0531517)
(-0.0100561 -0.00302739 0.0348955)
(-0.0442115 -0.00442504 0.0675941)
(-0.0904597 -0.00391802 0.0713582)
(-0.129208 -0.00259435 0.0549303)
(-0.155684 -0.00111516 0.0223889)
(-0.166443 8.41524e-05 -0.0232648)
(-0.157816 0.000635319 -0.0754095)
(-0.125435 0.00038534 -0.118728)
(-0.0689292 -0.000210338 -0.122799)
(-0.0156947 -0.000210992 -0.0561265)
(-0.0100561 0.00302743 0.0348954)
(-0.0442115 0.00442506 0.0675941)
(-0.0904597 0.00391804 0.0713582)
(-0.129208 0.00259436 0.0549303)
(-0.155684 0.00111517 0.0223889)
(-0.166443 -8.41433e-05 -0.0232648)
(-0.157816 -0.000635313 -0.0754095)
(-0.125435 -0.000385336 -0.118728)
(-0.0689292 0.000210342 -0.122799)
(-0.0156947 0.000210997 -0.0561265)
(-0.00915477 0.00814236 0.0352909)
(-0.040374 0.0118237 0.0681176)
(-0.0831442 0.0105615 0.0728661)
(-0.119945 0.00720017 0.0583976)
(-0.146231 0.00344571 0.0283332)
(-0.158194 0.000401505 -0.0150131)
(-0.151539 -0.00101487 -0.0656164)
(-0.121359 -0.000445156 -0.108698)
(-0.0670063 0.000930847 -0.114742)
(-0.0154139 0.000560389 -0.0531517)
(-0.00734052 0.0104569 0.0351618)
(-0.0326554 0.0149017 0.0671232)
(-0.0681638 0.0134999 0.0732528)
(-0.100248 0.00967429 0.0625372)
(-0.125022 0.00545859 0.0379117)
(-0.138387 0.00213939 0.000518365)
(-0.135355 0.000579745 -0.0451714)
(-0.110229 0.00115596 -0.0862116)
(-0.0615742 0.00228714 -0.0959316)
(-0.0144812 0.000657574 -0.0460143)
(-0.00467522 0.00834635 0.0318961)
(-0.0213015 0.0114013 0.05913)
(-0.0455263 0.0104635 0.0656162)
(-0.0689 0.00794976 0.0597696)
(-0.0888416 0.00530842 0.0437222)
(-0.101814 0.00347238 0.0174176)
(-0.102777 0.00285939 -0.0170637)
(-0.0858533 0.00344055 -0.0508224)
(-0.0487507 0.00350356 -0.0638536)
(-0.0117918 0.00016143 -0.0331361)
(-0.0014556 0.0030147 0.0190579)
(-0.00727203 0.00391998 0.0324969)
(-0.0163623 0.00362063 0.0361633)
(-0.0259546 0.00287001 0.0350202)
(-0.0353929 0.00213595 0.0298806)
(-0.0429499 0.00175174 0.0200138)
(-0.0455883 0.00184767 0.00532704)
(-0.0394967 0.00223071 -0.0112502)
(-0.02262 0.00197587 -0.0213536)
(-0.00549206 -0.000132933 -0.0136511)
(-0.00197851 -0.00355612 0.0298099)
(-0.00849301 -0.00441104 0.0486548)
(-0.0179201 -0.00356446 0.0525974)
(-0.0281933 -0.00194059 0.0499439)
(-0.0397706 -0.000200456 0.0421467)
(-0.0515559 0.00110894 0.0278611)
(-0.0597665 0.00142593 0.00577694)
(-0.0577154 0.000454161 -0.0213978)
(-0.0392202 -0.000739211 -0.0415119)
(-0.0120903 4.07587e-05 -0.0315957)
(-0.0058619 -0.00965858 0.0497488)
(-0.0247592 -0.0125115 0.0882807)
(-0.0510632 -0.00986486 0.0956082)
(-0.076672 -0.00461929 0.0859931)
(-0.100602 0.00117161 0.0630017)
(-0.120251 0.00579246 0.0257089)
(-0.129469 0.00760325 -0.0253876)
(-0.11812 0.00535894 -0.0807595)
(-0.0780047 0.00104561 -0.111457)
(-0.0232075 0.000120095 -0.0697832)
(-0.00892003 -0.0118526 0.0556872)
(-0.037668 -0.0159206 0.101171)
(-0.0764462 -0.0120878 0.108007)
(-0.111212 -0.0044499 0.0920558)
(-0.139853 0.00400813 0.0582838)
(-0.159514 0.0107254 0.00715247)
(-0.164451 0.0133658 -0.0587061)
(-0.145051 0.010253 -0.12569)
(-0.094245 0.00376338 -0.156537)
(-0.0276128 0.000216913 -0.0915265)
(-0.0109444 -0.00909054 0.0569717)
(-0.0462356 -0.0123926 0.103992)
(-0.0927296 -0.00909687 0.109082)
(-0.131892 -0.00262419 0.0886234)
(-0.161173 0.00444855 0.0487918)
(-0.178361 0.00990177 -0.00863124)
(-0.17912 0.0117196 -0.0799089)
(-0.155186 0.00886251 -0.150282)
(-0.10031 0.00346755 -0.179473)
(-0.0292964 0.000234076 -0.102222)
(-0.0119266 -0.00335258 0.0570505)
(-0.0503938 -0.00459051 0.104101)
(-0.100433 -0.00330361 0.107969)
(-0.141149 -0.000805258 0.0852774)
(-0.169938 0.00189717 0.0429558)
(-0.185303 0.00393704 -0.0165288)
(-0.183922 0.00452138 -0.0891194)
(-0.1583 0.0033672 -0.160139)
(-0.102351 0.00133583 -0.188417)
(-0.0299186 0.000101265 -0.106375)
(-0.0119266 0.00335261 0.0570505)
(-0.0503938 0.00459053 0.104101)
(-0.100433 0.00330362 0.107969)
(-0.141149 0.00080527 0.0852774)
(-0.169938 -0.00189716 0.0429558)
(-0.185303 -0.00393703 -0.0165288)
(-0.183922 -0.00452138 -0.0891194)
(-0.1583 -0.00336719 -0.160139)
(-0.102351 -0.00133583 -0.188417)
(-0.0299186 -0.00010126 -0.106375)
(-0.0109444 0.00909057 0.0569717)
(-0.0462356 0.0123926 0.103992)
(-0.0927296 0.00909688 0.109082)
(-0.131892 0.0026242 0.0886234)
(-0.161173 -0.00444854 0.0487918)
(-0.178361 -0.00990177 -0.00863124)
(-0.17912 -0.0117196 -0.0799089)
(-0.155186 -0.0088625 -0.150282)
(-0.10031 -0.00346755 -0.179473)
(-0.0292964 -0.000234071 -0.102222)
(-0.00892003 0.0118526 0.0556872)
(-0.037668 0.0159206 0.101171)
(-0.0764462 0.0120878 0.108007)
(-0.111212 0.00444991 0.0920558)
(-0.139853 -0.00400812 0.0582838)
(-0.159514 -0.0107254 0.00715247)
(-0.164451 -0.0133658 -0.0587061)
(-0.145051 -0.010253 -0.12569)
(-0.094245 -0.00376338 -0.156537)
(-0.0276128 -0.000216909 -0.0915265)
(-0.0058619 0.00965859 0.0497488)
(-0.0247592 0.0125116 0.0882807)
(-0.0510632 0.00986487 0.0956082)
(-0.0766721 0.0046193 0.0859931)
(-0.100602 -0.00117161 0.0630017)
(-0.120251 -0.00579245 0.0257089)
(-0.129469 -0.00760324 -0.0253877)
(-0.11812 -0.00535894 -0.0807595)
(-0.0780047 -0.0010456 -0.111457)
(-0.0232075 -0.000120092 -0.0697832)
(-0.00197851 0.00355613 0.0298098)
(-0.00849302 0.00441104 0.0486548)
(-0.0179201 0.00356447 0.0525974)
(-0.0281933 0.00194059 0.0499439)
(-0.0397706 0.000200459 0.0421467)
(-0.0515559 -0.00110894 0.0278611)
(-0.0597665 -0.00142593 0.00577693)
(-0.0577154 -0.00045416 -0.0213978)
(-0.0392202 0.000739211 -0.0415119)
(-0.0120903 -4.07575e-05 -0.0315957)
(-0.00329099 -0.0039647 0.0426298)
(-0.0106292 -0.00452666 0.0654095)
(-0.0189087 -0.00281084 0.0678997)
(-0.0280595 0.000112295 0.0626667)
(-0.0404366 0.0034549 0.0519826)
(-0.056458 0.00640077 0.0336085)
(-0.0723695 0.00779803 0.00412772)
(-0.0784573 0.00628253 -0.0360266)
(-0.0627113 0.00251036 -0.0717201)
(-0.0229013 -0.00032094 -0.0640089)
(-0.00777992 -0.0104997 0.0702543)
(-0.028055 -0.0125455 0.118693)
(-0.0530994 -0.00744027 0.125034)
(-0.0769021 0.00147298 0.111032)
(-0.101289 0.0115537 0.0820163)
(-0.125852 0.0201664 0.0356026)
(-0.144685 0.0239703 -0.0311221)
(-0.144277 0.0194681 -0.111908)
(-0.11053 0.00820712 -0.171882)
(-0.0388884 -0.000807232 -0.130945)
(-0.0108311 -0.0125727 0.0788453)
(-0.0409262 -0.0156003 0.136793)
(-0.0781324 -0.00860322 0.143156)
(-0.110033 0.00363049 0.122526)
(-0.137474 0.0170272 0.082245)
(-0.160151 0.027639 0.0212478)
(-0.173295 0.0311388 -0.0619972)
(-0.165074 0.0242596 -0.158501)
(-0.124376 0.0100783 -0.225335)
(-0.0436512 -0.000496419 -0.163668)
(-0.01272 -0.00948109 0.0812408)
(-0.0490804 -0.0119349 0.141645)
(-0.0933878 -0.00616732 0.14648)
(-0.128462 0.0037816 0.121592)
(-0.154888 0.0143274 0.0759352)
(-0.173479 0.0220726 0.00959136)
(-0.181609 0.0237649 -0.0787101)
(-0.169596 0.0176677 -0.179968)
(-0.128018 0.00705186 -0.248809)
(-0.0454205 -0.000201396 -0.178132)
(-0.0135965 -0.0034656 0.0817788)
(-0.0528917 -0.00437944 0.142503)
(-0.10028 -0.00217828 0.146189)
(-0.13615 0.00157766 0.119307)
(-0.161207 0.00547612 0.0717463)
(-0.177188 0.00819555 0.00410598)
(-0.182998 0.00861245 -0.0851221)
(-0.170079 0.00622643 -0.18763)
(-0.129118 0.00242573 -0.257281)
(-0.0461745 -4.02958e-05 -0.183523)
(-0.0135965 0.00346562 0.0817788)
(-0.0528917 0.00437945 0.142503)
(-0.10028 0.00217829 0.146189)
(-0.13615 -0.00157765 0.119307)
(-0.161207 -0.00547611 0.0717463)
(-0.177188 -0.00819555 0.00410597)
(-0.182998 -0.00861245 -0.0851221)
(-0.170079 -0.00622643 -0.18763)
(-0.129118 -0.00242573 -0.257281)
(-0.0461745 4.02993e-05 -0.183523)
(-0.01272 0.00948111 0.0812408)
(-0.0490804 0.0119349 0.141645)
(-0.0933878 0.00616733 0.14648)
(-0.128462 -0.00378159 0.121592)
(-0.154889 -0.0143274 0.0759352)
(-0.173479 -0.0220726 0.00959135)
(-0.181609 -0.0237649 -0.0787101)
(-0.169596 -0.0176677 -0.179968)
(-0.128018 -0.00705186 -0.248809)
(-0.0454205 0.000201399 -0.178132)
(-0.0108311 0.0125727 0.0788453)
(-0.0409262 0.0156003 0.136793)
(-0.0781324 0.00860323 0.143156)
(-0.110033 -0.00363048 0.122526)
(-0.137474 -0.0170272 0.082245)
(-0.160151 -0.027639 0.0212478)
(-0.173295 -0.0311388 -0.0619972)
(-0.165074 -0.0242596 -0.158501)
(-0.124376 -0.0100783 -0.225335)
(-0.0436512 0.000496422 -0.163668)
(-0.00777992 0.0104997 0.0702542)
(-0.028055 0.0125455 0.118693)
(-0.0530994 0.00744028 0.125034)
(-0.0769021 -0.00147298 0.111032)
(-0.101289 -0.0115536 0.0820163)
(-0.125852 -0.0201664 0.0356026)
(-0.144685 -0.0239702 -0.0311221)
(-0.144277 -0.0194681 -0.111908)
(-0.11053 -0.00820712 -0.171882)
(-0.0388884 0.000807234 -0.130945)
(-0.00329099 0.0039647 0.0426298)
(-0.0106292 0.00452666 0.0654095)
(-0.0189087 0.00281084 0.0678996)
(-0.0280595 -0.000112292 0.0626667)
(-0.0404366 -0.0034549 0.0519826)
(-0.056458 -0.00640077 0.0336085)
(-0.0723695 -0.00779803 0.00412772)
(-0.0784573 -0.00628253 -0.0360266)
(-0.0627113 -0.00251036 -0.0717201)
(-0.0229013 0.000320941 -0.0640089)
(-0.00702873 -0.0045862 0.0595596)
(-0.0160876 -0.00469432 0.0812262)
(-0.0199138 -0.00184768 0.0787604)
(-0.0239682 0.00267685 0.0690404)
(-0.0332698 0.00798749 0.0551948)
(-0.0507083 0.0131524 0.033806)
(-0.0743921 0.0163579 -0.00121507)
(-0.09249 0.0146545 -0.0545282)
(-0.0877494 0.00728309 -0.110915)
(-0.0362283 -0.00138307 -0.117548)
(-0.0125596 -0.0115036 0.0950687)
(-0.0340256 -0.0123825 0.147336)
(-0.0517038 -0.00445611 0.148519)
(-0.0657277 0.00829838 0.128913)
(-0.081865 0.0228068 0.0956895)
(-0.103341 0.0358692 0.0449329)
(-0.1275 0.0424851 -0.030748)
(-0.140359 0.0359683 -0.13442)
(-0.127078 0.0158874 -0.233468)
(-0.0500282 -0.00441192 -0.221347)
(-0.0152632 -0.0131634 0.105415)
(-0.0450735 -0.0149228 0.169833)
(-0.072903 -0.00480383 0.172307)
(-0.092232 0.0114676 0.147361)
(-0.107942 0.0290318 0.104454)
(-0.123614 0.0430938 0.0407555)
(-0.138736 0.0477485 -0.0503895)
(-0.142773 0.0372535 -0.17195)
(-0.128332 0.0143952 -0.285969)
(-0.0509282 -0.00429126 -0.263518)
(-0.016698 -0.00966558 0.108247)
(-0.0514932 -0.0111774 0.17614)
(-0.0848243 -0.00321486 0.177974)
(-0.105558 0.00942774 0.15006)
(-0.118434 0.022493 0.103443)
(-0.128238 0.0319578 0.0360073)
(-0.137191 0.0336256 -0.059051)
(-0.137771 0.0245826 -0.186246)
(-0.126204 0.00860094 -0.306206)
(-0.0513821 -0.00271689 -0.280576)
(-0.0173064 -0.00348747 0.108924)
(-0.0543218 -0.00405747 0.177467)
(-0.0898505 -0.00108751 0.178549)
(-0.110532 0.00357802 0.149311)
(-0.121324 0.00827537 0.101661)
(-0.128036 0.0114729 0.0337222)
(-0.1346 0.0117264 -0.0618882)
(-0.134816 0.00826528 -0.190894)
(-0.125572 0.00274236 -0.313317)
(-0.0519015 -0.000883938 -0.286876)
(-0.0173064 0.00348748 0.108924)
(-0.0543218 0.00405748 0.177467)
(-0.0898505 0.00108751 0.178549)
(-0.110532 -0.00357801 0.149311)
(-0.121324 -0.00827536 0.101661)
(-0.128036 -0.0114729 0.0337222)
(-0.1346 -0.0117264 -0.0618882)
(-0.134816 -0.00826528 -0.190894)
(-0.125572 -0.00274236 -0.313317)
(-0.0519015 0.000883941 -0.286876)
(-0.016698 0.00966559 0.108247)
(-0.0514932 0.0111774 0.17614)
(-0.0848243 0.00321487 0.177974)
(-0.105558 -0.00942773 0.15006)
(-0.118434 -0.022493 0.103443)
(-0.128238 -0.0319578 0.0360073)
(-0.137191 -0.0336256 -0.059051)
(-0.137771 -0.0245826 -0.186246)
(-0.126204 -0.00860094 -0.306206)
(-0.0513821 0.00271689 -0.280576)
(-0.0152632 0.0131634 0.105415)
(-0.0450735 0.0149228 0.169833)
(-0.072903 0.00480383 0.172307)
(-0.092232 -0.0114676 0.147361)
(-0.107942 -0.0290318 0.104454)
(-0.123614 -0.0430938 0.0407555)
(-0.138736 -0.0477485 -0.0503895)
(-0.142773 -0.0372535 -0.17195)
(-0.128332 -0.0143952 -0.285969)
(-0.0509282 0.00429126 -0.263518)
(-0.0125596 0.0115036 0.0950686)
(-0.0340256 0.0123825 0.147336)
(-0.0517038 0.00445612 0.148519)
(-0.0657277 -0.00829838 0.128913)
(-0.081865 -0.0228068 0.0956895)
(-0.103341 -0.0358692 0.0449329)
(-0.1275 -0.0424851 -0.030748)
(-0.140359 -0.0359683 -0.13442)
(-0.127078 -0.0158874 -0.233468)
(-0.0500282 0.00441192 -0.221347)
(-0.00702874 0.0045862 0.0595596)
(-0.0160876 0.00469432 0.0812262)
(-0.0199138 0.00184769 0.0787604)
(-0.0239682 -0.00267685 0.0690404)
(-0.0332698 -0.00798749 0.0551948)
(-0.0507083 -0.0131524 0.033806)
(-0.0743921 -0.0163579 -0.00121508)
(-0.09249 -0.0146545 -0.0545282)
(-0.0877494 -0.00728309 -0.110915)
(-0.0362283 0.00138307 -0.117548)
(-0.0164803 -0.00626374 0.0819464)
(-0.0280367 -0.00637297 0.092732)
(-0.0176099 -0.00253782 0.0809201)
(-0.00830216 0.00345848 0.0645913)
(-0.00690252 0.0104486 0.0476374)
(-0.0185964 0.0177111 0.0254567)
(-0.0455047 0.0232766 -0.0112853)
(-0.0762264 0.0218554 -0.0739966)
(-0.0965039 0.0102195 -0.153305)
(-0.0418457 -0.00614304 -0.196223)
(-0.0254424 -0.0143743 0.122882)
(-0.0492321 -0.0150733 0.167653)
(-0.0442521 -0.00535143 0.158661)
(-0.033031 0.00978536 0.131367)
(-0.0255265 0.0269125 0.0962117)
(-0.028246 0.0432525 0.048416)
(-0.0458705 0.0537579 -0.0238852)
(-0.0676644 0.0473639 -0.137331)
(-0.0947275 0.0188176 -0.27509)
(-0.0358144 -0.0145374 -0.327038)
(-0.0282168 -0.0152155 0.132909)
(-0.0586401 -0.0168842 0.192745)
(-0.0603392 -0.00550648 0.187148)
(-0.0498521 0.0120292 0.15655)
(-0.0372239 0.0309094 0.114395)
(-0.0289563 0.0468479 0.0568334)
(-0.0329263 0.0541364 -0.0272545)
(-0.0428189 0.0432647 -0.157104)
(-0.0742439 0.013636 -0.315524)
(-0.0274037 -0.0126841 -0.368377)
(-0.0292214 -0.0106341 0.135187)
(-0.062978 -0.0120798 0.199597)
(-0.0680963 -0.0035651 0.19486)
(-0.0573374 0.00929393 0.163071)
(-0.0409917 0.0225478 0.118965)
(-0.0260595 0.0327132 0.0590479)
(-0.0231342 0.0358682 -0.0278916)
(-0.0289778 0.0266923 -0.163157)
(-0.0657761 0.00727868 -0.329627)
(-0.0256147 -0.00751792 -0.383639)
(-0.0295392 -0.00374424 0.135627)
(-0.0645946 -0.00428739 0.200986)
(-0.0708795 -0.00118427 0.196144)
(-0.0595556 0.00343476 0.163875)
(-0.0412493 0.00806425 0.11945)
(-0.0234721 0.0114138 0.0593841)
(-0.0183349 0.0121605 -0.0279983)
(-0.0238836 0.00871516 -0.165178)
(-0.0638834 0.00221658 -0.33476)
(-0.0258094 -0.00236974 -0.389278)
(-0.0295392 0.00374425 0.135627)
(-0.0645946 0.00428739 0.200986)
(-0.0708795 0.00118428 0.196144)
(-0.0595556 -0.00343476 0.163875)
(-0.0412493 -0.00806425 0.11945)
(-0.0234721 -0.0114138 0.0593841)
(-0.0183349 -0.0121605 -0.0279983)
(-0.0238836 -0.00871516 -0.165178)
(-0.0638834 -0.00221658 -0.33476)
(-0.0258094 0.00236974 -0.389278)
(-0.0292214 0.0106341 0.135187)
(-0.062978 0.0120799 0.199597)
(-0.0680963 0.00356511 0.19486)
(-0.0573374 -0.00929392 0.163071)
(-0.0409917 -0.0225478 0.118965)
(-0.0260595 -0.0327132 0.0590479)
(-0.0231342 -0.0358682 -0.0278916)
(-0.0289778 -0.0266923 -0.163157)
(-0.0657761 -0.00727868 -0.329627)
(-0.0256147 0.00751792 -0.383639)
(-0.0282168 0.0152155 0.132909)
(-0.0586401 0.0168842 0.192745)
(-0.0603392 0.00550649 0.187148)
(-0.0498521 -0.0120292 0.15655)
(-0.0372239 -0.0309094 0.114395)
(-0.0289563 -0.0468479 0.0568334)
(-0.0329263 -0.0541364 -0.0272545)
(-0.0428189 -0.0432647 -0.157104)
(-0.0742439 -0.013636 -0.315524)
(-0.0274037 0.0126841 -0.368377)
(-0.0254424 0.0143743 0.122882)
(-0.0492321 0.0150733 0.167653)
(-0.0442521 0.00535144 0.158661)
(-0.033031 -0.00978536 0.131367)
(-0.0255265 -0.0269125 0.0962117)
(-0.028246 -0.0432525 0.048416)
(-0.0458705 -0.0537579 -0.0238852)
(-0.0676644 -0.0473639 -0.137331)
(-0.0947275 -0.0188176 -0.27509)
(-0.0358144 0.0145374 -0.327038)
(-0.0164803 0.00626374 0.0819464)
(-0.0280367 0.00637297 0.092732)
(-0.0176099 0.00253782 0.0809201)
(-0.00830217 -0.00345848 0.0645913)
(-0.00690253 -0.0104486 0.0476374)
(-0.0185964 -0.0177111 0.0254567)
(-0.0455048 -0.0232766 -0.0112853)
(-0.0762264 -0.0218554 -0.0739966)
(-0.0965039 -0.0102195 -0.153305)
(-0.0418457 0.00614305 -0.196223)
(-0.02383 -0.0112235 0.150164)
(-0.0201709 -0.0121233 0.0981681)
(0.0283736 -0.00748719 0.0628902)
(0.0627087 -0.000890966 0.0414777)
(0.0834285 0.00653202 0.0249706)
(0.0855278 0.0144093 0.00709057)
(0.0631506 0.0216049 -0.0215217)
(0.0255707 0.0207776 -0.0790566)
(-0.0421193 0.00502801 -0.174244)
(-0.00680253 -0.0179602 -0.259866)
(-0.0424636 -0.023025 0.209704)
(-0.0413237 -0.0262077 0.16998)
(0.023816 -0.0167637 0.128391)
(0.0797862 -0.00245879 0.0961095)
(0.124469 0.0138533 0.0662877)
(0.152295 0.0303343 0.0323344)
(0.150381 0.0445166 -0.0171826)
(0.131189 0.0424877 -0.107603)
(0.0402429 0.00982218 -0.256569)
(0.0437835 -0.0321249 -0.3697)
(-0.0477277 -0.0209542 0.219963)
(-0.0508398 -0.0259733 0.190605)
(0.0134286 -0.0171294 0.152086)
(0.0740942 -0.00273367 0.118496)
(0.127743 0.0135952 0.0848252)
(0.169532 0.0289449 0.0449838)
(0.181816 0.0400422 -0.0115195)
(0.176974 0.0352546 -0.11063)
(0.0811481 0.00553204 -0.27535)
(0.0632699 -0.0228786 -0.395295)
(-0.0487509 -0.0134285 0.221002)
(-0.0536187 -0.0172551 0.19479)
(0.00942095 -0.0112432 0.157821)
(0.0713341 -0.00151066 0.124466)
(0.128056 0.00921221 0.0901954)
(0.175059 0.0187983 0.0489266)
(0.192201 0.0248099 -0.00977635)
(0.191447 0.0206891 -0.111796)
(0.0912672 0.00317655 -0.281968)
(0.0663482 -0.0120291 -0.40397)
(-0.0488012 -0.00453474 0.220809)
(-0.0540567 -0.00590597 0.195128)
(0.00872346 -0.00379231 0.158475)
(0.0712204 -0.000422532 0.125247)
(0.129007 0.00320714 0.0910538)
(0.177583 0.00635132 0.0497044)
(0.195828 0.00816613 -0.00954255)
(0.195287 0.00664838 -0.112686)
(0.0924384 0.00105977 -0.284726)
(0.0659855 -0.00358342 -0.407133)
(-0.0488012 0.00453475 0.220809)
(-0.0540567 0.00590598 0.195128)
(0.00872346 0.00379232 0.158475)
(0.0712204 0.000422535 0.125247)
(0.129007 -0.00320714 0.0910538)