/*--------------------------------*- C++ -*----------------------------------*\
  =========                 |
  \\      /  F ield         | OpenFOAM: The Open Source CFD Toolbox
   \\    /   O peration     | Website:  https://openfoam.org
    \\  /    A nd           | Version:  9
     \\/     M anipulation  |
\*---------------------------------------------------------------------------*/
FoamFile
{
    format      ascii;
    class       volScalarField;
    location    "0.52";
    object      p;
}
// * * * * * * * * * * * * * * * * * * * * * * * * * * * * * * * * * * * * * //

dimensions      [0 2 -2 0 0 0 0];

internalField   nonuniform List<scalar> 
1000
(
-6.00822e-07
-0.000452254
-7.50819e-05
0.00106108
0.0030035
0.00561422
0.00844369
0.0107529
0.0118484
0.0110249
0.000173099
-0.00066621
-0.000389713
0.000787431
0.00289801
0.00578879
0.00894258
0.0114643
0.0125091
0.0111552
0.000879818
-0.000211983
2.91216e-05
0.00129795
0.00363678
0.00687222
0.0103897
0.0130631
0.0138893
0.0118322
0.0016286
0.00037416
0.000602692
0.00196123
0.00450538
0.00805147
0.0118265
0.0145697
0.0151694
0.0125598
0.00209382
0.000764595
0.000991886
0.00240275
0.00505905
0.00876478
0.0126806
0.0154458
0.0159106
0.0130111
0.00209388
0.000764661
0.000991937
0.00240279
0.00505908
0.0087648
0.0126806
0.0154458
0.0159106
0.0130112
0.00162885
0.000374378
0.000602854
0.00196136
0.00450546
0.00805155
0.0118265
0.0145697
0.0151694
0.0125599
0.000880299
-0.000211574
2.94096e-05
0.00129816
0.00363691
0.00687233
0.0103898
0.0130632
0.0138894
0.0118323
0.000174031
-0.000665513
-0.00038927
0.000787742
0.00289821
0.00578895
0.00894269
0.0114644
0.0125092
0.0111553
1.2839e-06
-0.000451234
-7.45312e-05
0.00106142
0.00300372
0.00561438
0.00844379
0.010753
0.0118485
0.0110249
0.000363646
-5.14159e-05
0.000347389
0.00137156
0.00308988
0.00543428
0.00804325
0.0102715
0.0113871
0.0102971
0.000889837
2.27286e-05
0.000344352
0.00135588
0.00310205
0.00553011
0.00827566
0.0106225
0.0116992
0.00996301
0.00200183
0.000765501
0.0010295
0.00204336
0.00385677
0.00642047
0.0093945
0.0118215
0.0127083
0.0102491
0.00303001
0.00152414
0.00173882
0.00275831
0.00464529
0.00737103
0.0105061
0.012969
0.0136671
0.0106831
0.003633
0.0019879
0.00217549
0.00319856
0.00512756
0.00794842
0.0111679
0.0136391
0.0142266
0.0109844
0.00363306
0.00198796
0.00217555
0.00319861
0.00512759
0.00794845
0.0111679
0.0136391
0.0142266
0.0109844
0.00303023
0.00152434
0.00173897
0.00275843
0.00464537
0.00737109
0.0105061
0.012969
0.0136671
0.0106831
0.00200223
0.00076586
0.00102976
0.00204355
0.00385691
0.00642057
0.00939456
0.0118216
0.0127083
0.0102492
0.000890519
2.32749e-05
0.00034473
0.00135615
0.00310224
0.00553024
0.00827576
0.0106226
0.0116992
0.00996307
0.00036469
-5.06935e-05
0.000347858
0.00137187
0.0030901
0.00543443
0.00804335
0.0102716
0.0113871
0.0102972
-0.000947581
-0.00149621
-0.00119288
-0.000332973
0.00124296
0.0036281
0.00659974
0.00949503
0.0112508
0.00998088
-0.000112549
-0.00127137
-0.00104972
-0.000200762
0.0014039
0.00389649
0.00705321
0.010115
0.0118033
0.00941079
0.00148639
-0.000205463
-9.0001e-05
0.000686334
0.00227989
0.00488573
0.00824039
0.0114247
0.0129201
0.00950696
0.00290376
0.000823057
0.000839131
0.00154626
0.00313418
0.00583347
0.00933047
0.0125663
0.0138686
0.00977382
0.00371502
0.00143314
0.00139178
0.0020588
0.00364524
0.00639488
0.00995767
0.0132017
0.0143913
0.00998055
0.00371508
0.0014332
0.00139183
0.00205884
0.00364526
0.0063949
0.00995769
0.0132017
0.0143913
0.00998055
0.00290394
0.000823207
0.000839252
0.00154635
0.00313425
0.00583352
0.0093305
0.0125663
0.0138686
0.00977382
0.00148669
-0.000205192
-8.97912e-05
0.000686489
0.00228
0.00488581
0.00824044
0.0114248
0.0129201
0.00950697
-0.000112094
-0.00127099
-0.00104943
-0.000200548
0.00140405
0.00389659
0.00705329
0.010115
0.0118033
0.00941083
-0.000946991
-0.00149574
-0.00119252
-0.000332724
0.00124315
0.00362823
0.00659983
0.00949511
0.0112509
0.00998092
-0.00431208
-0.00498514
-0.00482433
-0.00420161
-0.00279792
-0.000225844
0.0035767
0.00800852
0.0114186
0.0105373
-0.00315639
-0.00459424
-0.00452009
-0.00389349
-0.00243167
0.000302642
0.00439163
0.00915349
0.0125011
0.00991838
-0.00104162
-0.0031825
-0.00330622
-0.00288858
-0.00159039
0.00115784
0.00540413
0.0104123
0.0136798
0.00992779
0.000798488
-0.00185492
-0.00216681
-0.00195227
-0.000814497
0.00188099
0.00623452
0.0113641
0.0145224
0.0100721
0.00183862
-0.00107924
-0.00150037
-0.00140345
-0.00035458
0.00231204
0.00669608
0.0118527
0.0149403
0.010194
0.00183866
-0.0010792
-0.00150034
-0.00140341
-0.000354555
0.00231206
0.00669609
0.0118527
0.0149403
0.010194
0.000798613
-0.00185481
-0.00216672
-0.00195219
-0.000814438
0.00188104
0.00623455
0.0113641
0.0145224
0.0100722
-0.00104141
-0.0031823
-0.00330607
-0.00288846
-0.00159029
0.00115791
0.00540418
0.0104123
0.0136798
0.00992782
-0.00315609
-0.00459398
-0.00451988
-0.00389332
-0.00243154
0.000302737
0.0043917
0.00915353
0.0125011
0.00991841
-0.00431173
-0.00498485
-0.00482409
-0.00420143
-0.00279777
-0.000225746
0.00357677
0.00800858
0.0114187
0.0105373
-0.0104209
-0.0110573
-0.0109786
-0.0106318
-0.00948711
-0.00668417
-0.00157239
0.00557279
0.0123056
0.0134834
-0.0089677
-0.0105117
-0.0105444
-0.0102151
-0.00902973
-0.0061015
-0.000682362
0.00701986
0.013905
0.013242
-0.00641206
-0.0088273
-0.00922394
-0.00936343
-0.00867267
-0.00605853
-0.000650547
0.00747522
0.01466
0.0132831
-0.00422526
-0.00727052
-0.00800156
-0.00857012
-0.0083096
-0.00597142
-0.000643772
0.00769408
0.0150444
0.0133587
-0.00300353
-0.00637138
-0.00729245
-0.00809993
-0.00806968
-0.0058849
-0.000621997
0.00777755
0.0151844
0.0134047
-0.0030035
-0.00637136
-0.00729243
-0.00809991
-0.00806966
-0.00588489
-0.000621988
0.00777756
0.0151844
0.0134047
-0.00422517
-0.00727045
-0.00800151
-0.00857008
-0.00830956
-0.00597139
-0.000643744
0.0076941
0.0150444
0.0133587
-0.00641193
-0.00882717
-0.00922384
-0.00936336
-0.00867261
-0.00605848
-0.000650499
0.00747525
0.01466
0.0132831
-0.00896749
-0.0105115
-0.0105442
-0.0102149
-0.00902963
-0.00610143
-0.000682301
0.0070199
0.0139051
0.0132421
-0.0104206
-0.0110571
-0.0109784
-0.0106316
-0.00948699
-0.0066841
-0.00157233
0.00557284
0.0123056
0.0134834
-0.0199585
-0.0200383
-0.0197048
-0.019518
-0.018653
-0.0156501
-0.0088397
0.00236284
0.0150675
0.0216728
-0.0182215
-0.0193855
-0.0192558
-0.0192135
-0.0185597
-0.0158237
-0.00916199
0.00257575
0.0159272
0.0220375
-0.0153311
-0.0175332
-0.0180238
-0.0188653
-0.0192361
-0.0174404
-0.0112782
0.000971166
0.0153804
0.0220899
-0.0129147
-0.0158453
-0.0168663
-0.018443
-0.019628
-0.0185392
-0.0127487
-0.000248656
0.0147852
0.0220376
-0.0115855
-0.0148826
-0.016194
-0.0181573
-0.0197491
-0.0190018
-0.0134096
-0.000837628
0.0144534
0.0219793
-0.0115855
-0.0148826
-0.016194
-0.0181573
-0.0197491
-0.0190017
-0.0134096
-0.000837622
0.0144534
0.0219793
-0.0129146
-0.0158453
-0.0168662
-0.018443
-0.019628
-0.0185391
-0.0127487
-0.000248633
0.0147852
0.0220376
-0.015331
-0.0175331
-0.0180237
-0.0188653
-0.0192361
-0.0174403
-0.0112781
0.000971204
0.0153804
0.0220899
-0.0182213
-0.0193854
-0.0192557
-0.0192135
-0.0185596
-0.0158237
-0.00916193
0.00257579
0.0159273
0.0220375
-0.0199584
-0.0200382
-0.0197047
-0.0195179
-0.0186529
-0.0156501
-0.00883965
0.00236289
0.0150675
0.0216729
-0.0340833
-0.0319015
-0.0303428
-0.0297903
-0.0290634
-0.0259503
-0.017486
-0.00104305
0.0207459
0.0393923
-0.0318691
-0.031094
-0.0299908
-0.029952
-0.0299836
-0.0280043
-0.0207846
-0.00448778
0.0184759
0.0395246
-0.028622
-0.0290203
-0.0288596
-0.0302155
-0.0319679
-0.0318115
-0.0259278
-0.0093207
0.0154704
0.0393808
-0.0260261
-0.0272005
-0.0277627
-0.0301644
-0.0331292
-0.0341484
-0.0290506
-0.0122492
0.0135929
0.0392501
-0.0246353
-0.0261881
-0.0271287
-0.0300457
-0.0335719
-0.0351086
-0.0303543
-0.0134934
0.0127764
0.0391701
-0.0246353
-0.0261881
-0.0271286
-0.0300457
-0.0335718
-0.0351086
-0.0303543
-0.0134934
0.0127764
0.0391701
-0.0260261
-0.0272004
-0.0277627
-0.0301644
-0.0331291
-0.0341484
-0.0290506
-0.0122491
0.013593
0.0392501
-0.028622
-0.0290203
-0.0288596
-0.0302154
-0.0319679
-0.0318115
-0.0259277
-0.00932066
0.0154704
0.0393808
-0.031869
-0.0310939
-0.0299907
-0.029952
-0.0299835
-0.0280043
-0.0207846
-0.00448774
0.0184759
0.0395246
-0.0340832
-0.0319014
-0.0303427
-0.0297902
-0.0290633
-0.0259503
-0.017486
-0.00104301
0.0207459
0.0393923
-0.0567004
-0.0462845
-0.0414275
-0.039235
-0.0380565
-0.0346129
-0.0248945
-0.00253794
0.0307019
0.0735036
-0.0533437
-0.0448158
-0.0408511
-0.0399366
-0.0403295
-0.0391148
-0.0323169
-0.0115038
0.0229746
0.0739389
-0.0491582
-0.0419019
-0.0391215
-0.0401723
-0.042952
-0.0442121
-0.0395168
-0.018625
0.0182295
0.0753179
-0.046094
-0.0395906
-0.0376212
-0.0399513
-0.0442506
-0.0469329
-0.0433034
-0.0220978
0.016209
0.0766211
-0.0445389
-0.0383849
-0.0368218
-0.0397444
-0.0446989
-0.0479557
-0.0447573
-0.0233892
0.0155508
0.077247
-0.0445389
-0.0383849
-0.0368218
-0.0397444
-0.0446989
-0.0479557
-0.0447573
-0.0233892
0.0155508
0.077247
-0.0460939
-0.0395905
-0.0376212
-0.0399512
-0.0442506
-0.0469329
-0.0433034
-0.0220978
0.016209
0.0766211
-0.0491582
-0.0419018
-0.0391215
-0.0401722
-0.042952
-0.044212
-0.0395167
-0.018625
0.0182295
0.075318
-0.0533436
-0.0448157
-0.0408511
-0.0399365
-0.0403295
-0.0391148
-0.0323168
-0.0115037
0.0229746
0.0739389
-0.0567003
-0.0462844
-0.0414274
-0.0392349
-0.0380565
-0.0346129
-0.0248945
-0.0025379
0.0307019
0.0735036
-0.0883754
-0.0606974
-0.0513771
-0.0456091
-0.0427884
-0.0382625
-0.0257861
0.00502865
0.0517887
0.150913
-0.0806777
-0.0568412
-0.0500029
-0.0466429
-0.0461645
-0.0443765
-0.0356491
-0.00580061
0.0453489
0.162477
-0.0742883
-0.0520957
-0.0468175
-0.0459514
-0.0483979
-0.0492988
-0.0426846
-0.0112294
0.046255
0.171425
-0.0703266
-0.0488485
-0.0444466
-0.045099
-0.0492783
-0.0516909
-0.0459202
-0.0131594
0.0474803
0.17705
-0.0685047
-0.0472901
-0.0432941
-0.0446252
-0.0495418
-0.0525694
-0.0470918
-0.0137955
0.0481527
0.179484
-0.0685047
-0.04729
-0.0432941
-0.0446252
-0.0495418
-0.0525694
-0.0470918
-0.0137955
0.0481527
0.179484
-0.0703266
-0.0488484
-0.0444466
-0.045099
-0.0492783
-0.0516909
-0.0459202
-0.0131594
0.0474803
0.17705
-0.0742883
-0.0520956
-0.0468175
-0.0459514
-0.0483979
-0.0492988
-0.0426846
-0.0112293
0.046255
0.171425
-0.0806776
-0.0568411
-0.0500029
-0.0466428
-0.0461645
-0.0443765
-0.0356491
-0.00580058
0.0453489
0.162477
-0.0883754
-0.0606973
-0.051377
-0.045609
-0.0427884
-0.0382625
-0.025786
0.00502868
0.0517887
0.150913
-0.198768
-0.0735185
-0.0484411
-0.0398264
-0.0354257
-0.0286881
-0.0119054
0.0331008
0.119115
0.324638
-0.186531
-0.0609304
-0.0407495
-0.0364962
-0.035708
-0.0322817
-0.0179374
0.0298494
0.129518
0.359167
-0.177714
-0.0521391
-0.0342048
-0.032991
-0.0353792
-0.0343587
-0.0210366
0.0298186
0.138721
0.379926
-0.172634
-0.0471589
-0.0302166
-0.0307086
-0.0349505
-0.0352853
-0.0223134
0.0301863
0.143247
0.389877
-0.170403
-0.0450058
-0.0284692
-0.0296875
-0.0347271
-0.0356535
-0.0228277
0.0303315
0.144955
0.393655
-0.170403
-0.0450058
-0.0284692
-0.0296875
-0.0347271
-0.0356535
-0.0228277
0.0303315
0.144955
0.393655
-0.172634
-0.0471588
-0.0302165
-0.0307086
-0.0349504
-0.0352853
-0.0223134
0.0301864
0.143247
0.389877
-0.177714
-0.052139
-0.0342047
-0.032991
-0.0353792
-0.0343587
-0.0210366
0.0298186
0.138721
0.379926
-0.186531
-0.0609304
-0.0407495
-0.0364962
-0.035708
-0.0322817
-0.0179374
0.0298495
0.129518
0.359167
-0.198769
-0.0735185
-0.048441
-0.0398264
-0.0354257
-0.0286881
-0.0119054
0.0331008
0.119115
0.324638
)
;

boundaryField
{
    top
    {
        type            zeroGradient;
    }
    others
    {
        type            zeroGradient;
    }
}


// ************************************************************************* //
