/*--------------------------------*- C++ -*----------------------------------*\
  =========                 |
  \\      /  F ield         | OpenFOAM: The Open Source CFD Toolbox
   \\    /   O peration     | Website:  https://openfoam.org
    \\  /    A nd           | Version:  9
     \\/     M anipulation  |
\*---------------------------------------------------------------------------*/
FoamFile
{
    format      ascii;
    class       surfaceScalarField;
    location    "0.52";
    object      phi;
}
// * * * * * * * * * * * * * * * * * * * * * * * * * * * * * * * * * * * * * //

dimensions      [0 3 -1 0 0 0 0];

internalField   nonuniform List<scalar> 
2700
(
-6.47031e-08
-9.65197e-08
1.61239e-07
-3.12001e-07
-1.03688e-07
3.50986e-07
-6.32763e-07
-1.03191e-07
4.23953e-07
-9.43854e-07
-1.23526e-07
4.34618e-07
-1.16155e-06
-1.73455e-07
3.91147e-07
-1.19268e-06
-2.47944e-07
2.79075e-07
-9.72506e-07
-3.2176e-07
1.01589e-07
-5.39778e-07
-3.47698e-07
-8.50301e-08
-1.06323e-07
-2.79807e-07
-1.53647e-07
-9.1878e-08
-1.44455e-08
-1.6423e-07
-2.06407e-07
2.74117e-07
-6.8648e-07
-2.68694e-07
6.87256e-07
-1.33859e-06
-2.86437e-07
8.3536e-07
-1.94538e-06
-3.255e-07
8.08757e-07
-2.34525e-06
-4.04834e-07
6.31252e-07
-2.37124e-06
-5.14021e-07
2.92065e-07
-1.91517e-06
-6.10116e-07
-1.6771e-07
-1.06819e-06
-6.23337e-07
-5.71348e-07
-2.3714e-07
-4.96943e-07
-6.13912e-07
-2.00808e-07
-1.28211e-07
-2.35488e-07
-2.22446e-07
2.51528e-07
-9.35736e-07
-3.12419e-07
7.43972e-07
-1.79317e-06
-3.40957e-07
9.11952e-07
-2.57407e-06
-3.80999e-07
8.36399e-07
-3.06742e-06
-4.53962e-07
5.42478e-07
-3.06278e-06
-5.50425e-07
3.1763e-08
-2.42827e-06
-6.23444e-07
-6.21183e-07
-1.30701e-06
-6.18791e-07
-1.1258e-06
-2.55592e-07
-4.92129e-07
-1.05623e-06
-2.16746e-07
-2.39654e-07
-2.80312e-07
-1.39879e-07
1.97745e-07
-1.09249e-06
-2.02952e-07
7.02713e-07
-2.0777e-06
-2.2355e-07
8.67805e-07
-2.9637e-06
-2.47921e-07
7.52918e-07
-3.50746e-06
-2.89513e-07
3.79308e-07
-3.46156e-06
-3.42099e-07
-2.54229e-07
-2.69845e-06
-3.80021e-07
-1.00653e-06
-1.39974e-06
-3.71818e-07
-1.54568e-06
-2.31457e-07
-2.95736e-07
-1.36468e-06
-1.35702e-07
-3.125e-07
-3.02212e-07
1.23922e-12
1.62332e-07
-1.16863e-06
8.82065e-13
6.6346e-07
-2.21547e-06
6.74783e-13
8.23298e-07
-3.15094e-06
4.88482e-13
6.87544e-07
-3.71503e-06
3.97474e-13
2.74577e-07
-3.64518e-06
2.80914e-13
-4.11951e-07
-2.81341e-06
2.0555e-13
-1.21179e-06
-1.42774e-06
1.56623e-13
-1.75749e-06
-2.10195e-07
1.32112e-13
-1.51328e-06
1.03914e-13
-3.45897e-07
-3.02212e-07
1.39881e-07
1.62332e-07
-1.16863e-06
2.02954e-07
6.6346e-07
-2.21547e-06
2.23552e-07
8.23298e-07
-3.15094e-06
2.47922e-07
6.87543e-07
-3.71503e-06
2.89513e-07
2.74577e-07
-3.64518e-06
3.42099e-07
-4.11951e-07
-2.81341e-06
3.80022e-07
-1.21179e-06
-1.42774e-06
3.71818e-07
-1.75749e-06
-2.10195e-07
2.95736e-07
-1.51328e-06
1.35703e-07
-3.45897e-07
-2.80312e-07
2.22449e-07
1.97745e-07
-1.09249e-06
3.1242e-07
7.02713e-07
-2.0777e-06
3.40958e-07
8.67805e-07
-2.9637e-06
3.81e-07
7.52918e-07
-3.50746e-06
4.53963e-07
3.79308e-07
-3.46156e-06
5.50426e-07
-2.54229e-07
-2.69845e-06
6.23444e-07
-1.00653e-06
-1.39974e-06
6.18791e-07
-1.54568e-06
-2.31457e-07
4.92129e-07
-1.36468e-06
2.16746e-07
-3.125e-07
-2.35489e-07
2.0641e-07
2.51528e-07
-9.35737e-07
2.68696e-07
7.43973e-07
-1.79317e-06
2.86438e-07
9.11953e-07
-2.57407e-06
3.255e-07
8.36399e-07
-3.06742e-06
4.04835e-07
5.42478e-07
-3.06278e-06
5.14021e-07
3.1763e-08
-2.42827e-06
6.10116e-07
-6.21183e-07
-1.30701e-06
6.23337e-07
-1.1258e-06
-2.55592e-07
4.96943e-07
-1.05623e-06
2.00808e-07
-2.39654e-07
-1.64232e-07
9.6526e-08
2.74116e-07
-6.86482e-07
1.03689e-07
6.87256e-07
-1.33859e-06
1.03191e-07
8.3536e-07
-1.94538e-06
1.23527e-07
8.08757e-07
-2.34525e-06
1.73455e-07
6.31252e-07
-2.37124e-06
2.47945e-07
2.92065e-07
-1.91517e-06
3.21761e-07
-1.6771e-07
-1.06819e-06
3.47699e-07
-5.71348e-07
-2.3714e-07
2.79807e-07
-6.13912e-07
9.18781e-08
-1.2821e-07
-6.47077e-08
1.61234e-07
-3.12004e-07
3.50985e-07
-6.32765e-07
4.23952e-07
-9.43856e-07
4.34617e-07
-1.16155e-06
3.91147e-07
-1.19268e-06
2.79075e-07
-9.72506e-07
1.01589e-07
-5.39778e-07
-8.50301e-08
-1.06323e-07
-1.53647e-07
-1.44453e-08
-2.22502e-07
-2.54416e-07
6.38158e-07
-7.23968e-07
-3.31444e-07
1.1839e-06
-1.32003e-06
-3.45442e-07
1.36545e-06
-1.88076e-06
-3.57932e-07
1.35329e-06
-2.26909e-06
-3.92852e-07
1.17233e-06
-2.33251e-06
-4.50741e-07
7.93234e-07
-1.95895e-06
-5.05782e-07
2.33813e-07
-1.18392e-06
-5.01524e-07
-3.58541e-07
-3.31914e-07
-3.72953e-07
-6.327e-07
-7.81425e-08
-2.68216e-07
-5.91568e-07
-4.5461e-07
1.06588e-06
-1.78086e-06
-6.50778e-07
2.19588e-06
-3.13752e-06
-6.93666e-07
2.54024e-06
-4.34628e-06
-7.18778e-07
2.37837e-06
-5.11262e-06
-7.7388e-07
1.77862e-06
-5.15142e-06
-8.56181e-07
7.36304e-07
-4.27822e-06
-9.25534e-07
-6.21156e-07
-2.61064e-06
-8.91481e-07
-1.84897e-06
-8.11877e-07
-6.74551e-07
-2.11107e-06
-2.18069e-07
-8.00161e-07
-8.56362e-07
-4.55424e-07
1.1087e-06
-2.52152e-06
-6.8459e-07
2.44294e-06
-4.37436e-06
-7.38754e-07
2.80989e-06
-5.97075e-06
-7.64584e-07
2.4786e-06
-6.91721e-06
-8.13434e-07
1.52849e-06
-6.87527e-06
-8.82802e-07
1.6441e-08
-5.6192e-06
-9.23768e-07
-1.87902e-06
-3.36882e-06
-8.72649e-07
-3.39501e-06
-1.02162e-06
-6.67767e-07
-3.41022e-06
-2.55336e-07
-1.22401e-06
-1.02075e-06
-2.77115e-07
1.04019e-06
-2.98729e-06
-4.26661e-07
2.41133e-06
-5.14519e-06
-4.63128e-07
2.75007e-06
-6.96414e-06
-4.78431e-07
2.28572e-06
-7.99384e-06
-5.04581e-07
1.10016e-06
-7.8556e-06
-5.39889e-07
-7.35385e-07
-6.33569e-06
-5.54987e-07
-2.89522e-06
-3.72669e-06
-5.18546e-07
-4.50878e-06
-1.08507e-06
-3.99817e-07
-4.27425e-06
-1.64889e-07
-1.48802e-06
-1.09844e-06
9.69217e-13
9.83652e-07
-3.21041e-06
4.36539e-13
2.34877e-06
-5.51327e-06
2.4178e-13
2.66303e-06
-7.43288e-06
1.597e-13
2.12872e-06
-8.49258e-06
1.81182e-13
8.29696e-07
-8.29471e-06
1.68318e-13
-1.14971e-06
-6.64029e-06
1.62041e-13
-3.4212e-06
-3.86262e-06
1.60493e-13
-5.0537e-06
-1.0963e-06
1.86653e-13
-4.67942e-06
2.05639e-13
-1.60708e-06
-1.09844e-06
2.77117e-07
9.83652e-07
-3.21041e-06
4.26662e-07
2.34877e-06
-5.51327e-06
4.63129e-07
2.66303e-06
-7.43288e-06
4.78431e-07
2.12872e-06
-8.49258e-06
5.04582e-07
8.29696e-07
-8.29471e-06
5.39889e-07
-1.14971e-06
-6.64029e-06
5.54988e-07
-3.4212e-06
-3.86262e-06
5.18546e-07
-5.0537e-06
-1.0963e-06
3.99817e-07
-4.67942e-06
1.64889e-07
-1.60708e-06
-1.02075e-06
4.55426e-07
1.04019e-06
-2.98729e-06
6.8459e-07
2.41133e-06
-5.14519e-06
7.38754e-07
2.75007e-06
-6.96414e-06
7.64585e-07
2.28572e-06
-7.99384e-06
8.13434e-07
1.10016e-06
-7.8556e-06
8.82803e-07
-7.35385e-07
-6.33569e-06
9.23768e-07
-2.89522e-06
-3.72669e-06
8.72649e-07
-4.50878e-06
-1.08507e-06
6.67767e-07
-4.27425e-06
2.55336e-07
-1.48802e-06
-8.56362e-07
4.54612e-07
1.1087e-06
-2.52152e-06
6.50778e-07
2.44294e-06
-4.37436e-06
6.93666e-07
2.80989e-06
-5.97075e-06
7.18778e-07
2.4786e-06
-6.91721e-06
7.7388e-07
1.52849e-06
-6.87527e-06
8.56181e-07
1.64411e-08
-5.6192e-06
9.25535e-07
-1.87902e-06
-3.36882e-06
8.91481e-07
-3.39501e-06
-1.02162e-06
6.74551e-07
-3.41022e-06
2.18069e-07
-1.22401e-06
-5.91568e-07
2.54418e-07
1.06588e-06
-1.78086e-06
3.31444e-07
2.19589e-06
-3.13752e-06
3.45442e-07
2.54024e-06
-4.34628e-06
3.57932e-07
2.37837e-06
-5.11262e-06
3.92852e-07
1.77862e-06
-5.15142e-06
4.50741e-07
7.36305e-07
-4.27822e-06
5.05782e-07
-6.21156e-07
-2.61064e-06
5.01524e-07
-1.84897e-06
-8.11877e-07
3.72953e-07
-2.11107e-06
7.81427e-08
-8.00161e-07
-2.22504e-07
6.38155e-07
-7.2397e-07
1.18389e-06
-1.32003e-06
1.36545e-06
-1.88077e-06
1.35329e-06
-2.26909e-06
1.17233e-06
-2.33251e-06
7.93234e-07
-1.95895e-06
2.33813e-07
-1.18392e-06
-3.58541e-07
-3.31914e-07
-6.327e-07
-2.68216e-07
-3.34854e-07
-3.92455e-07
1.36547e-06
-1.00816e-06
-5.17839e-07
2.37504e-06
-1.78428e-06
-5.24873e-07
2.66645e-06
-2.53022e-06
-4.99832e-07
2.59906e-06
-3.10073e-06
-4.84501e-07
2.22734e-06
-3.30244e-06
-4.96284e-07
1.49122e-06
-2.93867e-06
-5.22296e-07
3.92337e-07
-1.94665e-06
-5.16604e-07
-8.33954e-07
-6.64239e-07
-3.87145e-07
-1.52797e-06
-3.86792e-08
-8.93776e-07
-9.36062e-07
-6.68529e-07
2.27802e-06
-2.63465e-06
-9.55294e-07
4.33193e-06
-4.50654e-06
-9.77761e-07
4.86502e-06
-6.18072e-06
-9.24537e-07
4.47725e-06
-7.31909e-06
-8.75867e-07
3.30836e-06
-7.55637e-06
-8.57948e-07
1.33525e-06
-6.57109e-06
-8.52447e-07
-1.27628e-06
-4.33212e-06
-8.07887e-07
-3.79666e-06
-1.55816e-06
-6.18752e-07
-4.65343e-06
-1.52963e-07
-2.24403e-06
-1.38387e-06
-6.50194e-07
2.47424e-06
-3.82133e-06
-9.69009e-07
4.89412e-06
-6.42832e-06
-9.97165e-07
5.43629e-06
-8.65627e-06
-9.35898e-07
4.7179e-06
-1.00492e-05
-8.68082e-07
2.91362e-06
-1.01698e-05
-8.16669e-07
9.57845e-08
-8.67974e-06
-7.7271e-07
-3.44883e-06
-5.62498e-06
-7.10904e-07
-6.54675e-06
-1.98825e-06
-5.57287e-07
-7.10841e-06
-1.88584e-07
-3.17664e-06
-1.66707e-06
-3.88805e-07
2.44587e-06
-4.57488e-06
-5.91867e-07
4.942e-06
-7.62843e-06
-6.1035e-07
5.4168e-06
-1.01584e-05
-5.69292e-07
4.44911e-06
-1.16424e-05
-5.19697e-07
2.23572e-06
-1.16206e-05
-4.75126e-07
-1.09871e-06
-9.77852e-06
-4.34645e-07
-5.07537e-06
-6.24137e-06
-3.93028e-07
-8.36381e-06
-2.15556e-06
-3.14182e-07
-8.60316e-06
-1.22476e-07
-3.70969e-06
-1.80135e-06
7.79626e-13
2.3962e-06
-4.93477e-06
2.61556e-13
4.89032e-06
-8.19649e-06
2.89109e-14
5.31441e-06
-1.0856e-05
6.31021e-15
4.21897e-06
-1.23611e-05
7.38459e-14
1.81503e-06
-1.22494e-05
9.71697e-14
-1.73651e-06
-1.02311e-05
1.06309e-13
-5.87414e-06
-6.4772e-06
1.30061e-13
-9.20063e-06
-2.20778e-06
1.62352e-13
-9.26302e-06
1.94663e-13
-3.93734e-06
-1.80135e-06
3.88806e-07
2.3962e-06
-4.93477e-06
5.91868e-07
4.89032e-06
-8.19649e-06
6.1035e-07
5.31441e-06
-1.0856e-05
5.69292e-07
4.21897e-06
-1.23611e-05
5.19697e-07
1.81503e-06
-1.22494e-05
4.75126e-07
-1.73651e-06
-1.02311e-05
4.34646e-07
-5.87414e-06
-6.4772e-06
3.93028e-07
-9.20063e-06
-2.20778e-06
3.14182e-07
-9.26302e-06
1.22477e-07
-3.93734e-06
-1.66707e-06
6.50195e-07
2.44587e-06
-4.57488e-06
9.6901e-07
4.942e-06
-7.62843e-06
9.97165e-07
5.4168e-06
-1.01584e-05
9.35898e-07
4.44911e-06
-1.16424e-05
8.68082e-07
2.23572e-06
-1.16206e-05
8.16669e-07
-1.09871e-06
-9.77852e-06
7.7271e-07
-5.07537e-06
-6.24137e-06
7.10905e-07
-8.36381e-06
-2.15556e-06
5.57287e-07
-8.60316e-06
1.88584e-07
-3.70969e-06
-1.38387e-06
6.6853e-07
2.47424e-06
-3.82133e-06
9.55294e-07
4.89412e-06
-6.42832e-06
9.77761e-07
5.43629e-06
-8.65627e-06
9.24537e-07
4.7179e-06
-1.00492e-05
8.75867e-07
2.91362e-06
-1.01698e-05
8.57948e-07
9.57846e-08
-8.67974e-06
8.52447e-07
-3.44883e-06
-5.62498e-06
8.07887e-07
-6.54675e-06
-1.98825e-06
6.18752e-07
-7.10841e-06
1.52963e-07
-3.17664e-06
-9.36062e-07
3.92456e-07
2.27801e-06
-2.63465e-06
5.17839e-07
4.33193e-06
-4.50654e-06
5.24873e-07
4.86502e-06
-6.18072e-06
4.99833e-07
4.47725e-06
-7.31909e-06
4.84501e-07
3.30836e-06
-7.55637e-06
4.96284e-07
1.33525e-06
-6.57109e-06
5.22296e-07
-1.27628e-06
-4.33212e-06
5.16604e-07
-3.79666e-06
-1.55816e-06
3.87145e-07
-4.65343e-06
3.86792e-08
-2.24403e-06
-3.34855e-07
1.36547e-06
-1.00816e-06
2.37504e-06
-1.78428e-06
2.66645e-06
-2.53022e-06
2.59906e-06
-3.10073e-06
2.22734e-06
-3.30244e-06
1.49122e-06
-2.93867e-06
3.92337e-07
-1.94665e-06
-8.33954e-07
-6.64239e-07
-1.52797e-06
-8.93776e-07
-4.23725e-07
-5.19659e-07
2.30885e-06
-1.22043e-06
-6.70922e-07
3.84266e-06
-2.129e-06
-6.36368e-07
4.21139e-06
-3.05308e-06
-5.26608e-07
4.04975e-06
-3.8776e-06
-4.0635e-07
3.45821e-06
-4.37971e-06
-3.24006e-07
2.31734e-06
-4.22794e-06
-3.0266e-07
5.43226e-07
-3.1317e-06
-3.39628e-07
-1.59057e-06
-1.29005e-06
-3.08995e-07
-3.06062e-06
-3.72052e-09
-2.18011e-06
-1.22016e-06
-8.64553e-07
3.84307e-06
-3.32195e-06
-1.19872e-06
6.96151e-06
-5.604e-06
-1.13345e-06
7.64416e-06
-7.71288e-06
-9.05728e-07
6.96525e-06
-9.33582e-06
-6.37499e-07
5.16244e-06
-1.00504e-05
-4.14417e-07
2.14029e-06
-9.32207e-06
-2.96524e-07
-2.0108e-06
-6.74118e-06
-3.19471e-07
-6.3977e-06
-2.80206e-06
-3.39479e-07
-8.56207e-06
-6.02655e-08
-4.98954e-06
-1.82347e-06
-8.26004e-07
4.25916e-06
-4.88387e-06
-1.1883e-06
7.94409e-06
-8.09052e-06
-1.11865e-06
8.62813e-06
-1.0878e-05
-8.66659e-07
7.46629e-06
-1.2814e-05
-5.58156e-07
4.77032e-06
-1.34039e-05
-2.78891e-07
5.50178e-07
-1.21207e-05
-1.18513e-07
-4.91003e-06
-8.5893e-06
-1.31794e-07
-1.02659e-05
-3.5158e-06
-2.09767e-07
-1.23116e-05
-7.87306e-08
-6.67398e-06
-2.20611e-06
-4.88163e-07
4.31414e-06
-5.87218e-06
-7.1532e-07
8.13509e-06
-9.62355e-06
-6.70524e-07
8.72005e-06
-1.27477e-05
-5.0787e-07
7.21448e-06
-1.475e-05
-3.05657e-07
3.9855e-06
-1.51526e-05
-1.18957e-07
-8.55992e-07
-1.34709e-05
-8.36937e-09
-6.86728e-06
-9.41528e-06
-1.86519e-08
-1.25325e-05
-3.80236e-06
-8.62061e-08
-1.43396e-05
-4.9801e-08
-7.54098e-06
-2.38645e-06
6.23172e-13
4.29448e-06
-6.33878e-06
1.50911e-13
8.12733e-06
-1.03354e-05
-8.02847e-14
8.64048e-06
-1.35897e-05
-1.06375e-13
6.96547e-06
-1.55845e-05
-3.56519e-14
3.50411e-06
-1.58639e-05
1.79065e-14
-1.57607e-06
-1.39884e-05
7.19984e-14
-7.75802e-06
-9.71619e-06
1.31195e-13
-1.34915e-05
-3.90002e-06
1.61808e-13
-1.51654e-05
1.47264e-13
-7.88716e-06
-2.38645e-06
4.88164e-07
4.29448e-06
-6.33878e-06
7.1532e-07
8.12733e-06
-1.03354e-05
6.70524e-07
8.64048e-06
-1.35897e-05
5.0787e-07
6.96547e-06
-1.55845e-05
3.05657e-07
3.50411e-06
-1.58639e-05
1.18957e-07
-1.57607e-06
-1.39884e-05
8.36957e-09
-7.75802e-06
-9.71619e-06
1.86522e-08
-1.34915e-05
-3.90002e-06
8.62064e-08
-1.51654e-05
4.98013e-08
-7.88716e-06
-2.20611e-06
8.26005e-07
4.31414e-06
-5.87218e-06
1.1883e-06
8.13509e-06
-9.62355e-06
1.11865e-06
8.72005e-06
-1.27477e-05
8.66659e-07
7.21448e-06
-1.475e-05
5.58156e-07
3.9855e-06
-1.51526e-05
2.78891e-07
-8.55992e-07
-1.34709e-05
1.18513e-07
-6.86728e-06
-9.41528e-06
1.31794e-07
-1.25325e-05
-3.80236e-06
2.09767e-07
-1.43396e-05
7.87308e-08
-7.54098e-06
-1.82347e-06
8.64554e-07
4.25916e-06
-4.88387e-06
1.19872e-06
7.94409e-06
-8.09052e-06
1.13345e-06
8.62813e-06
-1.0878e-05
9.05728e-07
7.46629e-06
-1.2814e-05
6.37499e-07
4.77032e-06
-1.34039e-05
4.14417e-07
5.50178e-07
-1.21207e-05
2.96524e-07
-4.91003e-06
-8.5893e-06
3.19471e-07
-1.02659e-05
-3.5158e-06
3.39479e-07
-1.23116e-05
6.02656e-08
-6.67398e-06
-1.22016e-06
5.19659e-07
3.84307e-06
-3.32195e-06
6.70922e-07
6.96151e-06
-5.604e-06
6.36368e-07
7.64416e-06
-7.71288e-06
5.26608e-07
6.96525e-06
-9.33582e-06
4.0635e-07
5.16244e-06
-1.00504e-05
3.24006e-07
2.14029e-06
-9.32207e-06
3.0266e-07
-2.0108e-06
-6.74118e-06
3.39628e-07
-6.3977e-06
-2.80206e-06
3.08995e-07
-8.56207e-06
3.72033e-09
-4.98954e-06
-4.23725e-07
2.30885e-06
-1.22043e-06
3.84266e-06
-2.129e-06
4.21139e-06
-3.05308e-06
4.04975e-06
-3.8776e-06
3.45821e-06
-4.37971e-06
2.31734e-06
-4.22794e-06
5.43226e-07
-3.1317e-06
-1.59057e-06
-1.29005e-06
-3.06062e-06
-2.18011e-06
-5.26256e-07
-6.27297e-07
3.4624e-06
-1.39546e-06
-7.73305e-07
5.48517e-06
-2.35996e-06
-6.45562e-07
5.82145e-06
-3.4182e-06
-3.78047e-07
5.48603e-06
-4.54481e-06
-5.60593e-08
4.64088e-06
-5.52889e-06
2.15391e-07
3.08603e-06
-5.87568e-06
3.28215e-07
5.61803e-07
-4.91369e-06
2.0122e-07
-2.75378e-06
-2.4344e-06
-2.12866e-08
-5.51862e-06
3.64794e-09
-4.61816e-06
-1.48203e-06
-1.02299e-06
5.7208e-06
-3.85774e-06
-1.34925e-06
9.91317e-06
-6.37946e-06
-1.10504e-06
1.06254e-05
-8.80726e-06
-5.71929e-07
9.58693e-06
-1.09448e-05
6.84883e-08
7.17546e-06
-1.2383e-05
6.2915e-07
3.16467e-06
-1.23598e-05
8.97326e-07
-2.60309e-06
-9.90005e-06
6.93785e-07
-9.35e-06
-4.80444e-06
2.03549e-07
-1.38825e-05
2.29368e-09
-9.79263e-06
-2.19187e-06
-9.62278e-07
6.39031e-06
-5.67063e-06
-1.31251e-06
1.13861e-05
-9.22035e-06
-1.05544e-06
1.21283e-05
-1.23641e-05
-4.87096e-07
1.05252e-05
-1.47963e-05
1.96142e-07
7.07481e-06
-1.60687e-05
7.91478e-07
1.66031e-06
-1.54773e-05
1.07049e-06
-5.67462e-06
-1.20883e-05
8.52079e-07
-1.38132e-05
-5.78902e-06
3.19801e-07
-1.87271e-05
7.97315e-09
-1.24687e-05
-2.63344e-06
-5.62703e-07
6.54801e-06
-6.79206e-06
-7.80051e-07
1.17612e-05
-1.09145e-05
-6.18547e-07
1.24056e-05
-1.43565e-05
-2.61274e-07
1.04306e-05
-1.67722e-05
1.66555e-07
6.4308e-06
-1.77598e-05
5.34415e-07
3.88726e-07
-1.67604e-05
6.96386e-07
-7.49261e-06
-1.29269e-05
5.50847e-07
-1.60648e-05
-6.15761e-06
2.18103e-07
-2.10072e-05
8.73104e-09
-1.36993e-05
-2.83724e-06
4.7972e-13
6.56902e-06
-7.30842e-06
9.65876e-14
1.18185e-05
-1.16741e-05
-1.29718e-13
1.23876e-05
-1.52075e-05
-1.49282e-13
1.02376e-05
-1.75569e-05
-5.12349e-14
6.02015e-06
-1.83703e-05
4.10868e-14
-2.283e-07
-1.71866e-05
1.24023e-13
-8.24529e-06
-1.32011e-05
1.84996e-13
-1.69261e-05
-6.28528e-06
1.77639e-13
-2.18631e-05
1.2205e-13
-1.41637e-05
-2.83724e-06
5.62704e-07
6.56902e-06
-7.30842e-06
7.80051e-07
1.18185e-05
-1.16741e-05
6.18547e-07
1.23876e-05
-1.52075e-05
2.61274e-07
1.02376e-05
-1.75569e-05
-1.66555e-07
6.02015e-06
-1.83703e-05
-5.34415e-07
-2.283e-07
-1.71866e-05
-6.96386e-07
-8.24529e-06
-1.32011e-05
-5.50847e-07
-1.69261e-05
-6.28528e-06
-2.18102e-07
-2.18631e-05
-8.73081e-09
-1.41637e-05
-2.63344e-06
9.62279e-07
6.54801e-06
-6.79206e-06
1.31251e-06
1.17612e-05
-1.09145e-05
1.05544e-06
1.24056e-05
-1.43565e-05
4.87096e-07
1.04306e-05
-1.67722e-05
-1.96142e-07
6.4308e-06
-1.77598e-05
-7.91478e-07
3.88726e-07
-1.67604e-05
-1.07049e-06
-7.49261e-06
-1.29269e-05
-8.52079e-07
-1.60648e-05
-6.15761e-06
-3.198e-07
-2.10072e-05
-7.97299e-09
-1.36993e-05
-2.19187e-06
1.02299e-06
6.39031e-06
-5.67063e-06
1.34925e-06
1.13861e-05
-9.22035e-06
1.10504e-06
1.21283e-05
-1.23641e-05
5.71929e-07
1.05252e-05
-1.47963e-05
-6.84881e-08
7.07481e-06
-1.60687e-05
-6.2915e-07
1.66031e-06
-1.54773e-05
-8.97325e-07
-5.67462e-06
-1.20883e-05
-6.93785e-07
-1.38132e-05
-5.78902e-06
-2.03549e-07
-1.87271e-05
-2.29351e-09
-1.24687e-05
-1.48203e-06
6.27297e-07
5.7208e-06
-3.85774e-06
7.73305e-07
9.91317e-06
-6.37946e-06
6.45562e-07
1.06254e-05
-8.80726e-06
3.78047e-07
9.58693e-06
-1.09448e-05
5.60594e-08
7.17546e-06
-1.2383e-05
-2.15391e-07
3.16467e-06
-1.23598e-05
-3.28214e-07
-2.60309e-06
-9.90005e-06
-2.0122e-07
-9.35e-06
-4.80444e-06
2.12866e-08
-1.38825e-05
-3.64798e-09
-9.79263e-06
-5.26256e-07
3.4624e-06
-1.39546e-06
5.48517e-06
-2.35996e-06
5.82145e-06
-3.4182e-06
5.48603e-06
-4.54481e-06
4.64088e-06
-5.52889e-06
3.08603e-06
-5.87568e-06
5.61803e-07
-4.91369e-06
-2.75378e-06
-2.4344e-06
-5.51862e-06
-4.61816e-06
-7.27821e-07
-7.1569e-07
4.90592e-06
-1.59091e-06
-8.13566e-07
7.16183e-06
-2.4447e-06
-5.28429e-07
7.20367e-06
-3.48103e-06
-1.27436e-08
6.5351e-06
-4.8395e-06
6.02591e-07
5.39676e-06
-6.40937e-06
1.16908e-06
3.48682e-06
-7.57935e-06
1.45272e-06
2.79068e-07
-7.19672e-06
1.18603e-06
-4.32244e-06
-4.25995e-06
4.80255e-07
-8.93564e-06
-6.45205e-08
-8.81359e-06
-1.79944e-06
-1.13748e-06
7.94203e-06
-4.24233e-06
-1.39221e-06
1.29347e-05
-6.6425e-06
-8.7419e-07
1.33713e-05
-9.0068e-06
8.40304e-08
1.18545e-05
-1.13845e-05
1.22064e-06
8.9351e-06
-1.35107e-05
2.22102e-06
4.23897e-06
-1.45496e-05
2.66835e-06
-2.77989e-06
-1.2963e-05
2.1728e-06
-1.19233e-05
-7.38858e-06
9.32499e-07
-1.99092e-05
-5.88761e-08
-1.71869e-05
-2.53457e-06
-1.05028e-06
8.83768e-06
-6.10193e-06
-1.33116e-06
1.48924e-05
-9.48794e-06
-8.06777e-07
1.54468e-05
-1.24491e-05
1.69731e-07
1.34007e-05
-1.49359e-05
1.3033e-06
9.47889e-06
-1.67112e-05
2.25426e-06
3.40241e-06
-1.71166e-05
2.60241e-06
-5.20328e-06
-1.47782e-05
2.04664e-06
-1.60254e-05
-8.33769e-06
8.62229e-07
-2.50973e-05
-2.85068e-08
-2.08367e-05
-2.96998e-06
-6.06726e-07
9.07444e-06
-7.19953e-06
-7.81588e-07
1.54412e-05
-1.10892e-05
-4.60741e-07
1.59492e-05
-1.42173e-05
1.35694e-07
1.35928e-05
-1.65166e-05
8.16223e-07
9.21717e-06
-1.78706e-05
1.36416e-06
2.63285e-06
-1.78491e-05
1.52858e-06
-6.44036e-06
-1.52473e-05
1.16523e-06
-1.77852e-05
-8.63698e-06
4.78511e-07
-2.72338e-05
-7.43521e-09
-2.23574e-05
-3.16286e-06
3.28405e-13
9.12515e-06
-7.68358e-06
2.37458e-15
1.55576e-05
-1.17679e-05
-2.10443e-13
1.60112e-05
-1.491e-05
-2.04953e-13
1.35154e-05
-1.70559e-05
-8.532e-14
8.98224e-06
-1.81844e-05
5.75483e-14
2.26433e-06
-1.79987e-05
1.65014e-13
-6.9024e-06
-1.53585e-05
2.14972e-13
-1.84011e-05
-8.74702e-06
1.71861e-13
-2.79961e-05
9.79631e-14
-2.29182e-05
-3.16286e-06
6.06726e-07
9.12515e-06
-7.68358e-06
7.81588e-07
1.55576e-05
-1.17679e-05
4.6074e-07
1.60112e-05
-1.491e-05
-1.35694e-07
1.35154e-05
-1.70559e-05
-8.16223e-07
8.98224e-06
-1.81844e-05
-1.36416e-06
2.26433e-06
-1.79987e-05
-1.52858e-06
-6.9024e-06
-1.53585e-05
-1.16523e-06
-1.84011e-05
-8.74702e-06
-4.7851e-07
-2.79961e-05
7.43541e-09
-2.29182e-05
-2.96998e-06
1.05028e-06
9.07444e-06
-7.19953e-06
1.33116e-06
1.54412e-05
-1.10892e-05
8.06777e-07
1.59492e-05
-1.42173e-05
-1.69731e-07
1.35928e-05
-1.65166e-05
-1.3033e-06
9.21717e-06
-1.78706e-05
-2.25426e-06
2.63285e-06
-1.78491e-05
-2.60241e-06
-6.44036e-06
-1.52473e-05
-2.04664e-06
-1.77852e-05
-8.63698e-06
-8.62229e-07
-2.72338e-05
2.8507e-08
-2.23574e-05
-2.53457e-06
1.13748e-06
8.83768e-06
-6.10193e-06
1.39221e-06
1.48924e-05
-9.48794e-06
8.7419e-07
1.54468e-05
-1.24491e-05
-8.40304e-08
1.34007e-05
-1.49359e-05
-1.22064e-06
9.47889e-06
-1.67112e-05
-2.22102e-06
3.40241e-06
-1.71166e-05
-2.66835e-06
-5.20328e-06
-1.47782e-05
-2.1728e-06
-1.60254e-05
-8.33769e-06
-9.32499e-07
-2.50973e-05
5.88763e-08
-2.08367e-05
-1.79944e-06
7.1569e-07
7.94203e-06
-4.24233e-06
8.13566e-07
1.29347e-05
-6.64251e-06
5.28429e-07
1.33713e-05
-9.0068e-06
1.27437e-08
1.18545e-05
-1.13845e-05
-6.02591e-07
8.9351e-06
-1.35107e-05
-1.16908e-06
4.23897e-06
-1.45496e-05
-1.45272e-06
-2.77989e-06
-1.2963e-05
-1.18603e-06
-1.19233e-05
-7.38858e-06
-4.80255e-07
-1.99092e-05
6.45205e-08
-1.71869e-05
-7.27821e-07
4.90591e-06
-1.59091e-06
7.16182e-06
-2.4447e-06
7.20367e-06
-3.48103e-06
6.5351e-06
-4.8395e-06
5.39676e-06
-6.40937e-06
3.48682e-06
-7.57935e-06
2.79068e-07
-7.19672e-06
-4.32244e-06
-4.25995e-06
-8.93564e-06
-8.81359e-06
-1.26695e-06
-8.29721e-07
7.00259e-06
-1.93228e-06
-8.43096e-07
8.67024e-06
-2.3158e-06
-3.49343e-07
7.93654e-06
-2.9409e-06
4.58373e-07
6.70182e-06
-4.20441e-06
1.4233e-06
5.23698e-06
-6.20428e-06
2.36659e-06
3.1201e-06
-8.41001e-06
2.9286e-06
-4.43804e-07
-9.20305e-06
2.56959e-06
-6.09899e-06
-6.48751e-06
1.20777e-06
-1.28589e-05
-2.83054e-07
-1.50181e-05
-2.45847e-06
-1.25327e-06
1.0824e-05
-4.57055e-06
-1.4006e-06
1.56043e-05
-6.13932e-06
-5.65833e-07
1.51565e-05
-7.60578e-06
8.26657e-07
1.29526e-05
-9.39267e-06
2.4444e-06
9.70088e-06
-1.15783e-05
3.88211e-06
4.90903e-06
-1.35842e-05
4.54213e-06
-2.38742e-06
-1.3683e-05
3.74699e-06
-1.30019e-05
-9.28752e-06
1.59752e-06
-2.46945e-05
-3.97679e-07
-2.63597e-05
-3.10652e-06
-1.12154e-06
1.18125e-05
-6.21861e-06
-1.30703e-06
1.79109e-05
-8.5535e-06
-5.03191e-07
1.77191e-05
-1.03019e-05
8.40795e-07
1.51349e-05
-1.18084e-05
2.35192e-06
1.1078e-05
-1.32586e-05
3.58861e-06
5.14611e-06
-1.4405e-05
3.99399e-06
-3.50875e-06
-1.39714e-05
3.09356e-06
-1.58057e-05
-9.49455e-06
1.19116e-06
-2.91678e-05
-3.18846e-07
-3.04101e-05
-3.45567e-06
-6.35993e-07
1.20446e-05
-7.11355e-06
-7.55857e-07
1.85479e-05
-9.79701e-06
-2.78672e-07
1.84081e-05
-1.15276e-05
5.17304e-07
1.56469e-05
-1.26484e-05
1.38928e-06
1.13007e-05
-1.35136e-05
2.06142e-06
5.02523e-06
-1.41858e-05
2.21659e-06
-3.99082e-06
-1.36827e-05
1.64138e-06
-1.68361e-05
-9.46962e-06
5.89507e-07
-3.08452e-05
-1.60472e-07
-3.19854e-05
-3.59922e-06
2.07194e-13
1.20884e-05
-7.48089e-06
-7.95007e-14
1.86834e-05
-1.02793e-05
-2.51725e-13
1.85309e-05
-1.19421e-05
-2.26554e-13
1.56954e-05
-1.28385e-05
-8.63537e-14
1.1268e-05
-1.34394e-05
8.14309e-14
4.92662e-06
-1.39681e-05
1.7903e-13
-4.15713e-06
-1.35378e-05
2.08795e-13
-1.719e-05
-9.49061e-06
1.62685e-13
-3.14538e-05
1.06272e-13
-3.25692e-05
-3.59922e-06
6.35993e-07
1.20884e-05
-7.48089e-06
7.55857e-07
1.86834e-05
-1.02793e-05
2.78671e-07
1.85309e-05
-1.19421e-05
-5.17304e-07
1.56954e-05
-1.28385e-05
-1.38928e-06
1.1268e-05
-1.34394e-05
-2.06142e-06
4.92662e-06
-1.39681e-05
-2.21659e-06
-4.15713e-06
-1.35378e-05
-1.64138e-06
-1.719e-05
-9.49061e-06
-5.89507e-07
-3.14538e-05
1.60472e-07
-3.25692e-05
-3.45567e-06
1.12154e-06
1.20446e-05
-7.11355e-06
1.30703e-06
1.85479e-05
-9.79701e-06
5.03191e-07
1.84081e-05
-1.15276e-05
-8.40795e-07
1.56469e-05
-1.26484e-05
-2.35192e-06
1.13007e-05
-1.35136e-05
-3.58861e-06
5.02523e-06
-1.41858e-05
-3.99399e-06
-3.99082e-06
-1.36827e-05
-3.09356e-06
-1.68361e-05
-9.46962e-06
-1.19116e-06
-3.08452e-05
3.18846e-07
-3.19854e-05
-3.10652e-06
1.25327e-06
1.18125e-05
-6.21861e-06
1.4006e-06
1.79109e-05
-8.5535e-06
5.65833e-07
1.77191e-05
-1.03019e-05
-8.26657e-07
1.51349e-05
-1.18084e-05
-2.4444e-06
1.1078e-05
-1.32586e-05
-3.88211e-06
5.14611e-06
-1.4405e-05
-4.54213e-06
-3.50875e-06
-1.39714e-05
-3.74699e-06
-1.58057e-05
-9.49455e-06
-1.59752e-06
-2.91678e-05
3.97679e-07
-3.04101e-05
-2.45847e-06
8.29721e-07
1.0824e-05
-4.57055e-06
8.43096e-07
1.56043e-05
-6.13932e-06
3.49343e-07
1.51565e-05
-7.60578e-06
-4.58373e-07
1.29526e-05
-9.39267e-06
-1.4233e-06
9.70088e-06
-1.15783e-05
-2.36659e-06
4.90903e-06
-1.35842e-05
-2.9286e-06
-2.38742e-06
-1.3683e-05
-2.56959e-06
-1.30019e-05
-9.28752e-06
-1.20777e-06
-2.46945e-05
2.83053e-07
-2.63597e-05
-1.26695e-06
7.00259e-06
-1.93228e-06
8.67024e-06
-2.3158e-06
7.93654e-06
-2.9409e-06
6.70182e-06
-4.20441e-06
5.23698e-06
-6.20428e-06
3.1201e-06
-8.41001e-06
-4.43804e-07
-9.20305e-06
-6.09899e-06
-6.48751e-06
-1.28589e-05
-1.50181e-05
-2.50911e-06
-1.09209e-06
1.06038e-05
-2.32708e-06
-1.08097e-06
9.56918e-06
-1.41454e-06
-4.12941e-07
7.43694e-06
-8.54043e-07
6.28023e-07
5.51331e-06
-1.30709e-06
1.85329e-06
3.83673e-06
-3.12404e-06
3.1026e-06
1.83444e-06
-6.16109e-06
4.01334e-06
-1.4201e-06
-8.67817e-06
3.6991e-06
-7.28101e-06
-7.66441e-06
1.6573e-06
-1.553e-05
-9.8446e-07
-2.1698e-05
-4.11376e-06
-1.52654e-06
1.53723e-05
-4.88429e-06
-1.66287e-06
1.69567e-05
-4.15314e-06
-6.41843e-07
1.46543e-05
-3.19742e-06
9.69109e-07
1.16558e-05
-2.89549e-06
2.8219e-06
8.43035e-06
-3.76342e-06
4.52575e-06
4.35382e-06
-5.87594e-06
5.48996e-06
-1.75151e-06
-8.1385e-06
4.64374e-06
-1.1684e-05
-7.47997e-06
1.68868e-06
-2.53844e-05
-1.33501e-06
-3.34892e-05
-4.74634e-06
-1.29028e-06
1.63225e-05
-6.24472e-06
-1.47155e-06
1.9218e-05
-5.8672e-06
-5.45821e-07
1.72456e-05
-4.71653e-06
9.12191e-07
1.40412e-05
-3.6314e-06
2.5228e-06
1.02919e-05
-3.27506e-06
3.88578e-06
5.42973e-06
-4.11058e-06
4.46929e-06
-1.65256e-06
-5.93353e-06
3.51263e-06
-1.28516e-05
-6.07705e-06
1.08736e-06
-2.84229e-05
-9.77798e-07
-3.68444e-05
-5.00637e-06
-7.07043e-07
1.64677e-05
-6.86837e-06
-8.24326e-07
1.97627e-05
-6.64606e-06
-2.93104e-07
1.79331e-05
-5.32737e-06
5.38704e-07
1.47017e-05
-3.75677e-06
1.43237e-06
1.08205e-05
-2.73781e-06
2.14479e-06
5.74727e-06
-3.02063e-06
2.3823e-06
-1.62102e-06
-4.86206e-06
1.78513e-06
-1.32672e-05
-5.59029e-06
5.04208e-07
-2.95339e-05
-4.64139e-07
-3.80893e-05
-5.09247e-06
1.20214e-13
1.64738e-05
-7.0844e-06
-1.11707e-13
1.9851e-05
-6.89703e-06
-2.50956e-13
1.80505e-05
-5.47665e-06
-2.36286e-13
1.48137e-05
-3.68945e-06
-1.2093e-13
1.09132e-05
-2.42731e-06
2.1021e-14
5.80927e-06
-2.57408e-06
1.08432e-13
-1.62806e-06
-4.53818e-06
1.4858e-13
-1.34407e-05
-5.52389e-06
1.30002e-13
-2.99639e-05
1.08565e-13
-3.85573e-05
-5.09247e-06
7.07043e-07
1.64738e-05
-7.0844e-06
8.24326e-07
1.9851e-05
-6.89704e-06
2.93104e-07
1.80505e-05
-5.47665e-06
-5.38705e-07
1.48137e-05
-3.68945e-06
-1.43237e-06
1.09132e-05
-2.42731e-06
-2.14479e-06
5.80927e-06
-2.57408e-06
-2.3823e-06
-1.62806e-06
-4.53818e-06
-1.78513e-06
-1.34407e-05
-5.52389e-06
-5.04208e-07
-2.99639e-05
4.64139e-07
-3.85573e-05
-5.00637e-06
1.29028e-06
1.64677e-05
-6.86837e-06
1.47155e-06
1.97627e-05
-6.64606e-06
5.45821e-07
1.79331e-05
-5.32737e-06
-9.12191e-07
1.47017e-05
-3.75677e-06
-2.5228e-06
1.08205e-05
-2.73781e-06
-3.88578e-06
5.74728e-06
-3.02063e-06
-4.46929e-06
-1.62102e-06
-4.86206e-06
-3.51262e-06
-1.32672e-05
-5.59029e-06
-1.08736e-06
-2.95339e-05
9.77799e-07
-3.80893e-05
-4.74634e-06
1.52654e-06
1.63225e-05
-6.24472e-06
1.66287e-06
1.9218e-05
-5.8672e-06
6.41843e-07
1.72456e-05
-4.71653e-06
-9.69109e-07
1.40412e-05
-3.63141e-06
-2.8219e-06
1.02919e-05
-3.27507e-06
-4.52575e-06
5.42973e-06
-4.11058e-06
-5.48996e-06
-1.65256e-06
-5.93353e-06
-4.64374e-06
-1.28516e-05
-6.07705e-06
-1.68868e-06
-2.84229e-05
1.33501e-06
-3.68444e-05
-4.11376e-06
1.09209e-06
1.53723e-05
-4.88429e-06
1.08097e-06
1.69567e-05
-4.15314e-06
4.12941e-07
1.46543e-05
-3.19742e-06
-6.28023e-07
1.16558e-05
-2.89549e-06
-1.85329e-06
8.43035e-06
-3.76342e-06
-3.1026e-06
4.35382e-06
-5.87594e-06
-4.01334e-06
-1.75151e-06
-8.1385e-06
-3.6991e-06
-1.1684e-05
-7.47997e-06
-1.6573e-06
-2.53844e-05
9.8446e-07
-3.34892e-05
-2.50911e-06
1.06038e-05
-2.32708e-06
9.56918e-06
-1.41454e-06
7.43694e-06
-8.54044e-07
5.51331e-06
-1.30709e-06
3.83673e-06
-3.12404e-06
1.83444e-06
-6.16109e-06
-1.4201e-06
-8.67817e-06
-7.28101e-06
-7.66441e-06
-1.553e-05
-2.1698e-05
-2.68993e-06
-1.85421e-06
1.51479e-05
4.44492e-07
-1.96284e-06
8.3976e-06
4.44754e-06
-1.18815e-06
4.62203e-06
7.3041e-06
-1.48597e-07
2.80535e-06
8.51352e-06
1.08294e-06
1.54437e-06
7.62026e-06
2.37536e-06
3.52338e-07
4.33365e-06
3.56276e-06
-1.69625e-06
-6.2318e-07
3.48393e-06
-5.80811e-06
-3.47452e-06
9.53655e-07
-1.36323e-05
-2.68745e-06
-2.24851e-05
-4.81953e-06
-2.21944e-06
2.0557e-05
-8.96778e-07
-2.65098e-06
1.37221e-05
4.95139e-06
-1.76486e-06
9.38285e-06
1.00749e-05
-3.21171e-07
6.70486e-06
1.37663e-05
1.34166e-06
4.48028e-06
1.53226e-05
2.99923e-06
2.17362e-06
1.39108e-05
4.29924e-06
-1.07619e-06
9.22357e-06
3.89735e-06
-7.4102e-06
3.05247e-06
7.61413e-07
-1.9021e-05
-2.71594e-06
-3.04082e-05
-5.59308e-06
-1.69239e-06
2.13886e-05
-1.88428e-06
-2.15228e-06
1.50105e-05
4.10965e-06
-1.45464e-06
1.09414e-05
9.9031e-06
-2.78704e-07
8.20525e-06
1.47255e-05
1.06831e-06
5.74286e-06
1.77603e-05
2.34354e-06
3.05062e-06
1.77388e-05
3.22739e-06
-5.59176e-07
1.3577e-05
2.80701e-06
-7.59946e-06
5.65277e-06
4.96152e-07
-2.02335e-05
-1.69187e-06
-3.22157e-05
-5.78701e-06
-8.7638e-07
2.14387e-05
-2.22529e-06
-1.14622e-06
1.51949e-05
3.7594e-06
-7.69905e-07
1.12636e-05
9.75338e-06
-1.40159e-07
8.5692e-06
1.4984e-05
5.75363e-07
6.08285e-06
1.8546e-05
1.23081e-06
3.298e-06
1.89306e-05
1.64665e-06
-4.2496e-07