/*--------------------------------*- C++ -*----------------------------------*\
  =========                 |
  \\      /  F ield         | OpenFOAM: The Open Source CFD Toolbox
   \\    /   O peration     | Website:  https://openfoam.org
    \\  /    A nd           | Version:  9
     \\/     M anipulation  |
\*---------------------------------------------------------------------------*/
FoamFile
{
    format      ascii;
    class       volVectorField;
    location    "0.28";
    object      U;
}
// * * * * * * * * * * * * * * * * * * * * * * * * * * * * * * * * * * * * * //

dimensions      [0 1 -1 0 0 0 0];

internalField   nonuniform List<vector> 
1000
(
(-0.000144848 -0.000329837 0.000382412)
(-0.00184499 -0.000212727 0.00103635)
(-0.0050518 -0.000150212 0.0012472)
(-0.00816633 -0.000220468 0.00122276)
(-0.0106016 -0.000424735 0.00103283)
(-0.0116892 -0.000730565 0.000648746)
(-0.010777 -0.00104597 7.52367e-05)
(-0.00763251 -0.00119846 -0.000528304)
(-0.00290582 -0.00098925 -0.000693752)
(-0.000145754 -0.000271198 -2.62965e-05)
(-0.000416689 -0.00101882 0.000621353)
(-0.00385817 -0.00101405 0.00203694)
(-0.0100649 -0.000946764 0.0024783)
(-0.0159728 -0.00110715 0.00230303)
(-0.0204265 -0.00154572 0.00168441)
(-0.0222479 -0.002202 0.000611641)
(-0.0203328 -0.00286415 -0.000831919)
(-0.0143354 -0.00312895 -0.00212234)
(-0.00557263 -0.00257617 -0.00220047)
(-0.000391031 -0.00090045 -0.000315663)
(-0.000542514 -0.00136468 0.000457231)
(-0.00487626 -0.00168425 0.00215876)
(-0.0126246 -0.00170316 0.00269718)
(-0.0199309 -0.0018578 0.00242551)
(-0.0253627 -0.00226031 0.00155309)
(-0.027483 -0.00286671 8.61653e-05)
(-0.0249337 -0.00344692 -0.00184092)
(-0.0173284 -0.00361274 -0.00344201)
(-0.00641724 -0.00298034 -0.00329352)
(-0.000249406 -0.00125453 -0.000528387)
(-0.000571218 -0.00107452 0.000246948)
(-0.00530939 -0.00142717 0.00200863)
(-0.013816 -0.00147206 0.00258312)
(-0.0218157 -0.00156896 0.00227891)
(-0.0277325 -0.00181986 0.00130401)
(-0.0299703 -0.00220009 -0.000337444)
(-0.0270394 -0.00254485 -0.00248392)
(-0.0185639 -0.00261385 -0.00420513)
(-0.00654439 -0.00216848 -0.00388117)
(-3.02923e-05 -0.000995461 -0.000618248)
(-0.000570169 -0.000399654 0.000126703)
(-0.00545397 -0.000546331 0.00188857)
(-0.0142599 -0.000567407 0.00247661)
(-0.0225389 -0.000598331 0.00216896)
(-0.0286528 -0.00067904 0.00116604)
(-0.0309356 -0.000801974 -0.000534772)
(-0.0278364 -0.000913638 -0.00275444)
(-0.0189866 -0.000930987 -0.00451288)
(-0.00650841 -0.000776127 -0.00410861)
(0.000101951 -0.000371065 -0.000644907)
(-0.000570169 0.00039969 0.000126704)
(-0.00545397 0.000546353 0.00188857)
(-0.0142599 0.000567424 0.00247661)
(-0.022539 0.000598344 0.00216896)
(-0.0286528 0.000679049 0.00116604)
(-0.0309356 0.00080198 -0.000534772)
(-0.0278364 0.000913642 -0.00275444)
(-0.0189866 0.000930989 -0.00451288)
(-0.00650841 0.000776126 -0.00410861)
(0.000101951 0.000371061 -0.000644907)
(-0.000571215 0.00107456 0.000246953)
(-0.00530939 0.00142719 0.00200863)
(-0.013816 0.00147207 0.00258312)
(-0.0218157 0.00156897 0.00227891)
(-0.0277325 0.00181987 0.00130401)
(-0.0299703 0.0022001 -0.000337446)
(-0.0270394 0.00254486 -0.00248392)
(-0.0185639 0.00261385 -0.00420514)
(-0.00654439 0.00216848 -0.00388118)
(-3.02927e-05 0.000995457 -0.000618248)
(-0.000542503 0.00136471 0.000457245)
(-0.00487626 0.00168427 0.00215878)
(-0.0126246 0.00170317 0.00269718)
(-0.0199309 0.00185781 0.00242551)
(-0.0253627 0.00226032 0.00155309)
(-0.027483 0.00286671 8.61625e-05)
(-0.0249337 0.00344692 -0.00184092)
(-0.0173284 0.00361274 -0.00344202)
(-0.00641724 0.00298034 -0.00329352)
(-0.000249406 0.00125453 -0.000528388)
(-0.000416648 0.0010188 0.000621397)
(-0.00385814 0.00101404 0.00203697)
(-0.0100649 0.000946769 0.00247831)
(-0.0159728 0.00110715 0.00230304)
(-0.0204265 0.00154573 0.00168441)
(-0.0222479 0.002202 0.000611638)
(-0.0203328 0.00286415 -0.000831923)
(-0.0143354 0.00312895 -0.00212234)
(-0.00557263 0.00257618 -0.00220048)
(-0.00039103 0.000900449 -0.000315664)
(-0.000144784 0.000329778 0.000382479)
(-0.00184496 0.000212692 0.00103638)
(-0.00505183 0.000150207 0.00124721)
(-0.00816637 0.000220468 0.00122276)
(-0.0106016 0.000424737 0.00103283)
(-0.0116893 0.000730568 0.000648746)
(-0.010777 0.00104598 7.52359e-05)
(-0.00763251 0.00119847 -0.000528304)
(-0.00290582 0.000989252 -0.000693753)
(-0.000145755 0.000271199 -2.6295e-05)
(-0.00074791 -0.000957378 0.00303247)
(-0.00440159 -0.00104711 0.00585625)
(-0.0103077 -0.000991817 0.00656393)
(-0.0159091 -0.000998577 0.006135)
(-0.0202333 -0.0011211 0.0048641)
(-0.0222052 -0.00135984 0.00270644)
(-0.0207614 -0.00163331 -0.000222599)
(-0.0153324 -0.00168695 -0.00315028)
(-0.00676042 -0.0012408 -0.0042544)
(-0.000948119 -6.02329e-05 -0.00170605)
(-0.0020066 -0.00249673 0.00495778)
(-0.0103086 -0.00305434 0.010831)
(-0.0230083 -0.00301231 0.0122528)
(-0.0347355 -0.00304054 0.0108951)
(-0.0433657 -0.00333214 0.00747343)
(-0.0468649 -0.00388065 0.00210422)
(-0.0433186 -0.00447609 -0.00464108)
(-0.0318797 -0.00452429 -0.0106092)
(-0.0145098 -0.003423 -0.0116195)
(-0.00236845 -0.00071058 -0.00419684)
(-0.00268319 -0.00291261 0.00499399)
(-0.0135768 -0.00394462 0.0119817)
(-0.0300284 -0.0040086 0.0136342)
(-0.0449824 -0.00403396 0.0116604)
(-0.0557296 -0.00431572 0.006924)
(-0.059797 -0.00485166 -0.000341204)
(-0.0548622 -0.00538407 -0.00922067)
(-0.0399932 -0.00534309 -0.0165921)
(-0.0178981 -0.00416068 -0.0168216)
(-0.00276992 -0.00139958 -0.00579849)
(-0.00294968 -0.00214458 0.0045904)
(-0.0150638 -0.00306084 0.0118389)
(-0.0333715 -0.00315039 0.0135461)
(-0.0498989 -0.00315538 0.0112864)
(-0.0616517 -0.00332504 0.00593259)
(-0.065921 -0.00366583 -0.00224067)
(-0.0601865 -0.00397073 -0.0121248)
(-0.0435258 -0.00389927 -0.0200717)
(-0.0190691 -0.00308923 -0.0196753)
(-0.00272361 -0.00121409 -0.00660241)
(-0.00302279 -0.000774034 0.00430971)
(-0.0155836 -0.00113031 0.0115782)
(-0.0346197 -0.00116942 0.0133002)
(-0.051768 -0.00116722 0.0109521)
(-0.0639181 -0.00121901 0.0053873)
(-0.0682539 -0.00132936 -0.00311379)
(-0.0621751 -0.00142381 -0.0133596)
(-0.0447767 -0.00139227 -0.0215009)
(-0.0193782 -0.00111425 -0.0208176)
(-0.00263093 -0.000468171 -0.00690639)
(-0.00302279 0.000774058 0.00430971)
(-0.0155836 0.00113031 0.0115782)
(-0.0346197 0.00116942 0.0133002)
(-0.051768 0.00116722 0.0109521)
(-0.0639181 0.00121902 0.0053873)
(-0.0682539 0.00132937 -0.00311379)
(-0.0621751 0.00142382 -0.0133596)
(-0.0447767 0.00139228 -0.0215009)
(-0.0193782 0.00111425 -0.0208176)
(-0.00263093 0.000468172 -0.00690639)
(-0.00294967 0.0021446 0.0045904)
(-0.0150638 0.00306085 0.0118389)
(-0.0333715 0.00315039 0.0135461)
(-0.0498989 0.00315539 0.0112864)
(-0.0616517 0.00332505 0.00593258)
(-0.065921 0.00366584 -0.00224067)
(-0.0601865 0.00397074 -0.0121248)
(-0.0435258 0.00389928 -0.0200717)
(-0.0190691 0.00308924 -0.0196753)
(-0.00272361 0.00121409 -0.00660241)
(-0.00268318 0.00291263 0.004994)
(-0.0135767 0.00394461 0.0119817)
(-0.0300283 0.0040086 0.0136342)
(-0.0449824 0.00403396 0.0116604)
(-0.0557296 0.00431572 0.00692399)
(-0.059797 0.00485166 -0.000341209)
(-0.0548622 0.00538408 -0.00922068)
(-0.0399932 0.0053431 -0.0165921)
(-0.0178981 0.00416069 -0.0168216)
(-0.00276992 0.00139958 -0.00579849)
(-0.00200657 0.00249671 0.00495782)
(-0.0103086 0.00305432 0.010831)
(-0.0230083 0.0030123 0.0122529)
(-0.0347355 0.00304055 0.0108951)
(-0.0433657 0.00333214 0.00747343)
(-0.0468649 0.00388065 0.00210422)
(-0.0433186 0.0044761 -0.00464108)
(-0.0318797 0.00452429 -0.0106092)
(-0.0145098 0.00342301 -0.0116195)
(-0.00236845 0.000710581 -0.00419684)
(-0.000747875 0.000957343 0.00303251)
(-0.00440157 0.00104708 0.00585627)
(-0.0103078 0.000991808 0.00656393)
(-0.0159091 0.000998577 0.006135)
(-0.0202333 0.0011211 0.0048641)
(-0.0222053 0.00135984 0.00270644)
(-0.0207614 0.00163331 -0.000222598)
(-0.0153324 0.00168695 -0.00315028)
(-0.00676043 0.00124081 -0.0042544)
(-0.00094812 6.02335e-05 -0.00170605)
(-0.00119447 -0.00153148 0.00842402)
(-0.00623843 -0.00178823 0.0146864)
(-0.0139812 -0.00171895 0.0159668)
(-0.0213084 -0.00164181 0.0146922)
(-0.0272553 -0.00166547 0.0115316)
(-0.0305932 -0.00183557 0.0063881)
(-0.0297691 -0.00208699 -0.000588031)
(-0.0233689 -0.00213497 -0.00780866)
(-0.0115732 -0.00155025 -0.0113389)
(-0.00220335 0.000104187 -0.00622797)
(-0.00328023 -0.0038481 0.0138222)
(-0.0153282 -0.00486262 0.0265721)
(-0.0328224 -0.00476639 0.029037)
(-0.0488642 -0.00455328 0.0253875)
(-0.0611425 -0.00456333 0.0172052)
(-0.0672314 -0.00488566 0.00474321)
(-0.0642951 -0.00535304 -0.0109146)
(-0.0499849 -0.00534005 -0.0254927)
(-0.0251976 -0.00399595 -0.0297133)
(-0.00510865 -0.000459162 -0.0139419)
(-0.00446542 -0.00431145 0.0148103)
(-0.0205958 -0.00590901 0.0299008)
(-0.0436967 -0.00589077 0.0326244)
(-0.0644841 -0.00559727 0.0273928)
(-0.0799389 -0.00550356 0.0161194)
(-0.0870846 -0.00570083 -0.000682861)
(-0.0825054 -0.00598878 -0.0211496)
(-0.0634845 -0.00583716 -0.0391792)
(-0.0315742 -0.00452725 -0.042239)
(-0.00618066 -0.00125656 -0.0186081)
(-0.00496649 -0.00308654 0.0145486)
(-0.0230578 -0.00442878 0.0302378)
(-0.0489536 -0.00444957 0.0329592)
(-0.0720552 -0.00420014 0.0269546)
(-0.0890032 -0.00406742 0.0142031)
(-0.0965356 -0.00412089 -0.004654)
(-0.0909676 -0.00420086 -0.02743)
(-0.0694841 -0.0040365 -0.0469334)
(-0.0340436 -0.00320161 -0.048976)
(-0.00638314 -0.00112272 -0.020973)
(-0.00511723 -0.00109721 0.014236)
(-0.0239295 -0.0016074 0.0300092)
(-0.0509154 -0.00162005 0.0327166)
(-0.0749199 -0.00152248 0.0264505)
(-0.0924467 -0.00146047 0.0131766)
(-0.100109 -0.00146048 -0.00642959)
(-0.0941186 -0.00146705 -0.0300341)
(-0.0716405 -0.0014013 -0.0500545)
(-0.034818 -0.00112665 -0.0516382)
(-0.00637047 -0.000436219 -0.0218804)
(-0.00511723 0.00109723 0.014236)
(-0.0239295 0.0016074 0.0300092)
(-0.0509154 0.00162004 0.0327166)
(-0.0749199 0.00152248 0.0264505)
(-0.0924467 0.00146047 0.0131766)
(-0.100109 0.00146049 -0.00642959)
(-0.0941186 0.00146706 -0.0300341)
(-0.0716405 0.0014013 -0.0500545)
(-0.034818 0.00112666 -0.0516382)
(-0.00637047 0.000436221 -0.0218804)
(-0.00496649 0.00308655 0.0145486)
(-0.0230578 0.00442878 0.0302379)
(-0.0489536 0.00444957 0.0329592)
(-0.0720552 0.00420014 0.0269546)
(-0.0890032 0.00406742 0.0142031)
(-0.0965356 0.0041209 -0.004654)
(-0.0909676 0.00420086 -0.02743)
(-0.0694841 0.0040365 -0.0469334)
(-0.0340436 0.00320161 -0.048976)
(-0.00638314 0.00112272 -0.0209729)
(-0.00446541 0.00431147 0.0148103)
(-0.0205958 0.005909 0.0299008)
(-0.0436966 0.00589077 0.0326245)
(-0.0644841 0.00559727 0.0273928)
(-0.0799389 0.00550357 0.0161193)
(-0.0870846 0.00570083 -0.000682865)
(-0.0825054 0.00598878 -0.0211496)
(-0.0634845 0.00583716 -0.0391792)
(-0.0315742 0.00452726 -0.042239)
(-0.00618066 0.00125656 -0.0186081)
(-0.00328022 0.0038481 0.0138222)
(-0.0153282 0.00486261 0.0265721)
(-0.0328224 0.00476639 0.029037)
(-0.0488642 0.00455329 0.0253875)
(-0.0611425 0.00456333 0.0172052)
(-0.0672314 0.00488567 0.0047432)
(-0.0642951 0.00535305 -0.0109146)
(-0.0499849 0.00534005 -0.0254927)
(-0.0251976 0.00399595 -0.0297133)
(-0.00510865 0.000459161 -0.0139419)
(-0.00119446 0.00153147 0.008424)
(-0.00623843 0.00178822 0.0146864)
(-0.0139813 0.00171895 0.0159668)
(-0.0213084 0.00164181 0.0146922)
(-0.0272553 0.00166547 0.0115316)
(-0.0305932 0.00183557 0.0063881)
(-0.0297691 0.00208699 -0.000588029)
(-0.0233689 0.00213497 -0.00780866)
(-0.0115732 0.00155025 -0.0113389)
(-0.00220335 -0.000104188 -0.00622796)
(-0.00166828 -0.00213836 0.0157004)
(-0.0080229 -0.00252427 0.0261591)
(-0.0173925 -0.00237673 0.0279772)
(-0.0263662 -0.0021353 0.0257616)
(-0.0343136 -0.00196654 0.020664)
(-0.0400655 -0.00197569 0.0122648)
(-0.0414101 -0.00215782 0.000222673)
(-0.0353665 -0.00234213 -0.0134846)
(-0.0202479 -0.00186088 -0.0220384)
(-0.00500535 0.000115727 -0.0145048)
(-0.00454806 -0.0052786 0.0257216)
(-0.0201051 -0.00665674 0.0468608)
(-0.0419752 -0.0063187 0.050307)
(-0.062207 -0.00559501 0.0440314)
(-0.0789014 -0.00497385 0.030658)
(-0.0895372 -0.00468522 0.0100532)
(-0.0900414 -0.00472799 -0.0171273)
(-0.0752471 -0.00487082 -0.0449341)
(-0.0429513 -0.00400571 -0.0570716)
(-0.0105949 -0.000362654 -0.0314872)
(-0.00620216 -0.00579327 0.0280784)
(-0.0272197 -0.00784563 0.0530693)
(-0.0564308 -0.00749376 0.0567906)
(-0.0828993 -0.00649052 0.0478751)
(-0.103996 -0.00547815 0.0294894)
(-0.116491 -0.00470416 0.00178817)
(-0.115511 -0.00432499 -0.0335694)
(-0.0951263 -0.00423993 -0.0680382)
(-0.0535147 -0.00373176 -0.0797051)
(-0.0128033 -0.00104434 -0.0411428)
(-0.00690679 -0.00407946 0.0281601)
(-0.0305479 -0.00575748 0.0542085)
(-0.063408 -0.0055096 0.0578867)
(-0.092877 -0.00469063 0.0477187)
(-0.115959 -0.00380927 0.0269901)
(-0.129174 -0.0030532 -0.00401948)
(-0.127201 -0.00260631 -0.0430916)
(-0.103813 -0.00248448 -0.0803775)
(-0.0577322 -0.00232355 -0.0912243)
(-0.0134709 -0.00089553 -0.0458344)
(-0.00711838 -0.0014364 0.0279092)
(-0.0317127 -0.00206619 0.0541601)
(-0.0659772 -0.00197812 0.057818)
(-0.0965996 -0.00166871 0.0472489)
(-0.120443 -0.00133119 0.0257402)
(-0.133892 -0.00103886 -0.00639245)
(-0.131476 -0.000838208 -0.046795)
(-0.106917 -0.00078677 -0.0850861)
(-0.059149 -0.000765681 -0.0955779)
(-0.0136356 -0.000339771 -0.0475791)
(-0.00711838 0.00143642 0.0279092)
(-0.0317127 0.00206619 0.0541601)
(-0.0659772 0.00197811 0.057818)
(-0.0965996 0.00166871 0.0472489)
(-0.120443 0.00133119 0.0257402)
(-0.133892 0.00103886 -0.00639245)
(-0.131476 0.00083821 -0.046795)
(-0.106917 0.000786772 -0.0850861)
(-0.059149 0.000765686 -0.0955779)
(-0.0136356 0.000339775 -0.0475791)
(-0.00690679 0.00407947 0.0281601)
(-0.0305479 0.00575748 0.0542085)
(-0.063408 0.0055096 0.0578867)
(-0.092877 0.00469063 0.0477187)
(-0.115959 0.00380927 0.0269901)
(-0.129174 0.0030532 -0.00401948)
(-0.127201 0.00260631 -0.0430916)
(-0.103813 0.00248449 -0.0803775)
(-0.0577322 0.00232356 -0.0912243)
(-0.0134709 0.000895534 -0.0458344)
(-0.00620215 0.00579328 0.0280784)
(-0.0272197 0.00784562 0.0530693)
(-0.0564308 0.00749375 0.0567906)
(-0.0828993 0.00649052 0.0478751)
(-0.103996 0.00547815 0.0294894)
(-0.116491 0.00470416 0.00178817)
(-0.115511 0.00432499 -0.0335694)
(-0.0951263 0.00423993 -0.0680382)
(-0.0535147 0.00373176 -0.0797051)
(-0.0128033 0.00104434 -0.0411428)
(-0.00454805 0.00527861 0.0257216)
(-0.0201051 0.00665673 0.0468608)
(-0.0419751 0.0063187 0.050307)
(-0.062207 0.00559502 0.0440314)
(-0.0789014 0.00497385 0.030658)
(-0.0895372 0.00468522 0.0100532)
(-0.0900414 0.00472799 -0.0171273)
(-0.0752471 0.00487081 -0.0449341)
(-0.0429513 0.0040057 -0.0570716)
(-0.0105949 0.000362655 -0.0314872)
(-0.00166827 0.00213835 0.0157003)
(-0.0080229 0.00252427 0.0261591)
(-0.0173925 0.00237673 0.0279772)
(-0.0263662 0.0021353 0.0257616)
(-0.0343136 0.00196654 0.020664)
(-0.0400655 0.00197569 0.0122648)
(-0.0414101 0.00215782 0.000222677)
(-0.0353665 0.00234213 -0.0134846)
(-0.0202479 0.00186088 -0.0220383)
(-0.00500535 -0.000115727 -0.0145048)
(-0.00245607 -0.0028102 0.0252975)
(-0.0103144 -0.00325018 0.0404181)
(-0.0210095 -0.00285054 0.0424555)
(-0.031302 -0.00218096 0.0391563)
(-0.0413923 -0.00146813 0.0322268)
(-0.0506322 -0.000905311 0.0204992)
(-0.0562881 -0.000716643 0.00229227)
(-0.0530662 -0.00111195 -0.0209001)
(-0.0357049 -0.00138821 -0.0389106)
(-0.011007 -0.000105884 -0.0303189)
(-0.00626683 -0.00681771 0.0411462)
(-0.0255714 -0.00837521 0.0718442)
(-0.0513539 -0.00734466 0.0759845)
(-0.0752585 -0.00538739 0.0669754)
(-0.0965617 -0.00312933 0.0485736)
(-0.11327 -0.0010405 0.019423)
(-0.120203 0.000251155 -0.0218328)
(-0.108606 -0.000231715 -0.0690284)
(-0.0712891 -0.0016415 -0.0977251)
(-0.0212326 -0.000530315 -0.0636859)
(-0.00837294 -0.00734064 0.0452308)
(-0.034416 -0.0096426 0.0815989)
(-0.0691154 -0.00842655 0.0861924)
(-0.100548 -0.00584339 0.0737182)
(-0.127247 -0.00272404 0.0486629)
(-0.146323 0.000332455 0.00979847)
(-0.151695 0.00245684 -0.0434068)
(-0.133857 0.00213732 -0.101657)
(-0.0862837 -0.000213627 -0.132667)
(-0.0250918 -0.000798836 -0.0812258)
(-0.00923767 -0.00509489 0.0458103)
(-0.0384514 -0.0069595 0.0838335)
(-0.0775081 -0.00605896 0.0884841)
(-0.112481 -0.00404037 0.0745055)
(-0.141502 -0.0015671 0.0465456)
(-0.161196 0.000882482 0.00343394)
(-0.165215 0.00255224 -0.0548188)
(-0.144061 0.00231072 -0.117592)
(-0.0920245 0.000372896 -0.149046)
(-0.0264584 -0.000567696 -0.0891847)
(-0.00948145 -0.00177921 0.0456923)
(-0.0398084 -0.00247507 0.0840973)
(-0.0804928 -0.00214968 0.0887998)
(-0.11677 -0.00140335 0.0744074)
(-0.146613 -0.000482703 0.0455713)
(-0.166521 0.000434315 0.00110743)
(-0.170007 0.00102816 -0.0588693)
(-0.147613 0.000929656 -0.123253)
(-0.0940264 0.00020741 -0.154908)
(-0.0269281 -0.000194083 -0.0920343)
(-0.00948145 0.00177922 0.0456922)
(-0.0398084 0.00247507 0.0840973)
(-0.0804928 0.00214968 0.0887998)
(-0.11677 0.00140334 0.0744074)
(-0.146613 0.000482696 0.0455713)
(-0.166521 -0.00043432 0.00110743)
(-0.170007 -0.00102816 -0.0588693)
(-0.147613 -0.000929654 -0.123253)
(-0.0940264 -0.000207404 -0.154908)
(-0.0269281 0.000194087 -0.0920342)
(-0.00923767 0.0050949 0.0458103)
(-0.0384514 0.0069595 0.0838335)
(-0.0775081 0.00605895 0.0884841)
(-0.112481 0.00404036 0.0745055)
(-0.141502 0.0015671 0.0465456)
(-0.161196 -0.000882486 0.00343394)
(-0.165215 -0.00255223 -0.0548188)
(-0.144061 -0.00231072 -0.117592)
(-0.0920245 -0.00037289 -0.149046)
(-0.0264584 0.0005677 -0.0891847)
(-0.00837294 0.00734064 0.0452308)
(-0.034416 0.0096426 0.0815989)
(-0.0691154 0.00842655 0.0861924)
(-0.100548 0.00584339 0.0737182)
(-0.127247 0.00272404 0.0486629)
(-0.146323 -0.000332455 0.00979848)
(-0.151695 -0.00245684 -0.0434068)
(-0.133857 -0.00213732 -0.101657)
(-0.0862837 0.000213631 -0.132667)
(-0.0250918 0.000798838 -0.0812258)
(-0.00626683 0.00681771 0.0411462)
(-0.0255714 0.00837521 0.0718442)
(-0.0513539 0.00734466 0.0759845)
(-0.0752585 0.00538739 0.0669754)
(-0.0965617 0.00312933 0.0485736)
(-0.11327 0.0010405 0.019423)
(-0.120203 -0.000251152 -0.0218328)
(-0.108606 0.000231719 -0.0690284)
(-0.0712891 0.00164151 -0.0977251)
(-0.0212326 0.000530318 -0.0636859)
(-0.00245607 0.0028102 0.0252975)
(-0.0103144 0.00325018 0.0404181)
(-0.0210095 0.00285054 0.0424555)
(-0.031302 0.00218096 0.0391563)
(-0.0413923 0.00146813 0.0322267)
(-0.0506322 0.000905311 0.0204992)
(-0.0562881 0.000716644 0.00229228)
(-0.0530662 0.00111195 -0.0209001)
(-0.0357049 0.00138821 -0.0389106)
(-0.011007 0.000105887 -0.0303189)
(-0.00410077 -0.00357977 0.0381236)
(-0.0138749 -0.00389358 0.0572407)
(-0.0248055 -0.00286854 0.0582125)
(-0.0349475 -0.00122806 0.0530865)
(-0.0461073 0.000762338 0.0441533)
(-0.0590369 0.00281844 0.0291205)
(-0.0711728 0.00418446 0.00405936)
(-0.074663 0.00360241 -0.0315953)
(-0.0589623 0.00128011 -0.0649271)
(-0.0215158 -0.000462259 -0.0597285)
(-0.00911379 -0.00847998 0.0611019)
(-0.0324558 -0.00980824 0.10114)
(-0.0601949 -0.00720707 0.104603)
(-0.0848052 -0.00268685 0.0923152)
(-0.107826 0.00298756 0.0692262)
(-0.129156 0.00893741 0.0320289)
(-0.143934 0.013058 -0.0242364)
(-0.140436 0.0118649 -0.0961313)
(-0.105934 0.00504875 -0.152883)
(-0.0369153 -0.00113481 -0.119933)
(-0.0115959 -0.00891298 0.0671323)
(-0.0426074 -0.0110647 0.114962)
(-0.0802344 -0.00806947 0.119406)
(-0.112679 -0.00249582 0.103394)
(-0.14069 0.0045605 0.0727794)
(-0.163257 0.0118087 0.0241601)
(-0.174977 0.0165876 -0.0470208)
(-0.164351 0.0149262 -0.134481)
(-0.121166 0.00659309 -0.198873)
(-0.041594 -0.00091956 -0.14838)
(-0.0125198 -0.00608655 0.0682515)
(-0.0469622 -0.00787547 0.118468)
(-0.0892326 -0.00571437 0.123331)
(-0.125142 -0.00155954 0.105981)
(-0.154958 0.00368944 0.0724901)
(-0.177213 0.00897652 0.0194068)
(-0.186585 0.012264 -0.0576555)
(-0.172381 0.0108188 -0.151248)
(-0.126276 0.00477122 -0.218487)
(-0.0433464 -0.000467855 -0.160402)
(-0.0127402 -0.00210686 0.0682813)
(-0.0483057 -0.00278011 0.119108)
(-0.0922196 -0.00201201 0.124213)
(-0.129329 -0.000515179 0.106622)
(-0.159724 0.00136894 0.0723968)
(-0.181812 0.00324442 0.0179974)
(-0.190357 0.00436252 -0.0609818)
(-0.175039 0.00380174 -0.156815)
(-0.1282 0.0016746 -0.225258)
(-0.0440928 -0.000123521 -0.164643)
(-0.0127402 0.00210687 0.0682813)
(-0.0483057 0.00278011 0.119108)
(-0.0922196 0.002012 0.124213)
(-0.129329 0.00051517 0.106622)
(-0.159724 -0.00136895 0.0723968)
(-0.181812 -0.00324442 0.0179974)
(-0.190357 -0.00436252 -0.0609818)
(-0.175039 -0.00380174 -0.156815)
(-0.1282 -0.0016746 -0.225258)
(-0.0440928 0.000123527 -0.164643)
(-0.0125198 0.00608655 0.0682515)
(-0.0469622 0.00787547 0.118468)
(-0.0892326 0.00571436 0.123331)
(-0.125142 0.00155953 0.105981)
(-0.154958 -0.00368945 0.0724901)
(-0.177213 -0.00897653 0.0194068)
(-0.186585 -0.012264 -0.0576555)
(-0.172381 -0.0108188 -0.151248)
(-0.126276 -0.00477122 -0.218487)
(-0.0433464 0.00046786 -0.160402)
(-0.0115959 0.00891299 0.0671323)
(-0.0426074 0.0110647 0.114962)
(-0.0802344 0.00806946 0.119406)
(-0.112679 0.00249581 0.103394)
(-0.14069 -0.0045605 0.0727794)
(-0.163257 -0.0118087 0.0241601)
(-0.174977 -0.0165876 -0.0470208)
(-0.164351 -0.0149262 -0.134481)
(-0.121166 -0.00659308 -0.198873)
(-0.041594 0.000919563 -0.14838)
(-0.00911379 0.00847998 0.0611019)
(-0.0324558 0.00980824 0.10114)
(-0.0601949 0.00720707 0.104603)
(-0.0848052 0.00268685 0.0923152)
(-0.107826 -0.00298755 0.0692262)
(-0.129156 -0.0089374 0.0320289)
(-0.143934 -0.013058 -0.0242364)
(-0.140436 -0.0118649 -0.0961313)
(-0.105934 -0.00504874 -0.152883)
(-0.0369153 0.00113481 -0.119933)
(-0.00410077 0.00357977 0.0381236)
(-0.0138749 0.00389358 0.0572406)
(-0.0248055 0.00286854 0.0582125)
(-0.0349475 0.00122806 0.0530865)
(-0.0461073 -0.000762337 0.0441533)
(-0.0590369 -0.00281844 0.0291205)
(-0.0711728 -0.00418446 0.00405936)
(-0.074663 -0.00360241 -0.0315953)
(-0.0589623 -0.00128011 -0.0649271)
(-0.0215158 0.00046226 -0.0597285)
(-0.00800553 -0.00460636 0.0566171)
(-0.0204497 -0.00455742 0.0755857)
(-0.0282633 -0.00237479 0.0722017)
(-0.0343202 0.000890284 0.0632045)
(-0.0429325 0.00489503 0.051477)
(-0.0572461 0.00930219 0.0334427)
(-0.0764291 0.0127153 0.00252304)
(-0.0908939 0.0121722 -0.0468703)
(-0.0850627 0.00649383 -0.101219)
(-0.0350667 -0.00108347 -0.110736)
(-0.0148099 -0.0105006 0.0880736)
(-0.0423215 -0.0110772 0.132946)
(-0.0661065 -0.0057877 0.131606)
(-0.0834298 0.00262243 0.114113)
(-0.0995995 0.0131083 0.0866588)
(-0.118096 0.0243299 0.0440274)
(-0.137228 0.0323466 -0.0230468)
(-0.144992 0.0300448 -0.11934)
(-0.127498 0.0148148 -0.214589)
(-0.0493553 -0.00329928 -0.207933)
(-0.0175224 -0.0106479 0.0958439)
(-0.0527896 -0.0122106 0.150755)
(-0.0860912 -0.00647479 0.151247)
(-0.109526 0.0031825 0.1306)
(-0.127654 0.0151877 0.0960735)
(-0.143439 0.0274003 0.0422556)
(-0.155772 0.035016 -0.0400455)
(-0.154689 0.0309215 -0.154554)
(-0.132892 0.0139907 -0.264391)
(-0.0509763 -0.00292101 -0.247348)
(-0.0183433 -0.00711342 0.097251)
(-0.0567476 -0.00857198 0.155289)
(-0.0942265 -0.00460085 0.156808)
(-0.120093 0.0022867 0.13549)
(-0.138401 0.0108081 0.0987815)
(-0.151906 0.0191975 0.0411125)
(-0.160273 0.0239127 -0.0467013)
(-0.155383 0.0203807 -0.16822)
(-0.133662 0.00879337 -0.283898)
(-0.0518676 -0.00163749 -0.263058)
(-0.0184633 -0.00243485 0.0973108)
(-0.0577517 -0.00300585 0.156158)
(-0.0965614 -0.00162467 0.158194)
(-0.123161 0.000800793 0.136979)
(-0.141427 0.00378611 0.0999011)
(-0.154109 0.00667571 0.0412152)
(-0.161271 0.00820559 -0.0484235)
(-0.155542 0.00686921 -0.172659)
(-0.134475 0.00291109 -0.29072)
(-0.0525908 -0.000477762 -0.26871)
(-0.0184633 0.00243485 0.0973108)
(-0.0577517 0.00300584 0.156158)
(-0.0965614 0.00162466 0.158194)
(-0.123161 -0.000800806 0.136979)
(-0.141427 -0.00378612 0.0999011)
(-0.154109 -0.00667571 0.0412152)
(-0.161271 -0.00820559 -0.0484235)
(-0.155542 -0.0068692 -0.172659)
(-0.134475 -0.00291109 -0.29072)
(-0.0525908 0.00047777 -0.26871)
(-0.0183433 0.00711342 0.097251)
(-0.0567476 0.00857197 0.155289)
(-0.0942265 0.00460084 0.156808)
(-0.120093 -0.00228671 0.13549)
(-0.138401 -0.0108081 0.0987815)
(-0.151906 -0.0191975 0.0411125)
(-0.160273 -0.0239127 -0.0467013)
(-0.155383 -0.0203807 -0.16822)
(-0.133662 -0.00879337 -0.283898)
(-0.0518676 0.0016375 -0.263058)
(-0.0175224 0.0106479 0.0958439)
(-0.0527896 0.0122106 0.150755)
(-0.0860913 0.00647478 0.151247)
(-0.109526 -0.00318251 0.1306)
(-0.127654 -0.0151877 0.0960735)
(-0.143439 -0.0274003 0.0422556)
(-0.155772 -0.035016 -0.0400455)
(-0.154689 -0.0309215 -0.154554)
(-0.132892 -0.0139907 -0.264391)
(-0.0509763 0.00292101 -0.247348)
(-0.0148099 0.0105006 0.0880736)
(-0.0423215 0.0110772 0.132946)
(-0.0661065 0.0057877 0.131606)
(-0.0834298 -0.00262243 0.114113)
(-0.0995995 -0.0131083 0.0866588)
(-0.118096 -0.0243299 0.0440274)
(-0.137228 -0.0323466 -0.0230467)
(-0.144992 -0.0300448 -0.11934)
(-0.127498 -0.0148148 -0.214589)
(-0.0493553 0.00329928 -0.207933)
(-0.00800553 0.00460637 0.0566171)
(-0.0204497 0.00455742 0.0755856)
(-0.0282633 0.00237479 0.0722017)
(-0.0343202 -0.000890285 0.0632045)
(-0.0429325 -0.00489503 0.051477)
(-0.0572461 -0.00930219 0.0334427)
(-0.0764291 -0.0127153 0.00252304)
(-0.0908939 -0.0121722 -0.0468703)
(-0.0850627 -0.00649383 -0.101219)
(-0.0350667 0.00108347 -0.110736)
(-0.0172346 -0.00642451 0.0816877)
(-0.0322846 -0.00603944 0.0910807)
(-0.0264478 -0.00252685 0.07891)
(-0.0198722 0.00256181 0.063228)
(-0.0185349 0.00850904 0.0479825)
(-0.0276618 0.0151858 0.0282398)
(-0.0504916 0.0209833 -0.00554361)
(-0.0775881 0.0208347 -0.0658783)
(-0.0958147 0.0108528 -0.143931)
(-0.0413924 -0.00492337 -0.189376)
(-0.0277246 -0.0138226 0.120438)
(-0.0587644 -0.0138144 0.159949)
(-0.0613684 -0.00581536 0.14826)
(-0.0546767 0.00616693 0.122365)
(-0.0484597 0.0204314 0.091368)
(-0.049381 0.0357786 0.0491097)
(-0.0627413 0.0478074 -0.0177337)
(-0.0794357 0.0453493 -0.127245)
(-0.100416 0.0209618 -0.262095)
(-0.037103 -0.0115448 -0.316837)
(-0.0308939 -0.0133145 0.128729)
(-0.0691665 -0.0147023 0.180968)
(-0.078723 -0.00663888 0.172282)
(-0.0736258 0.00601456 0.144195)
(-0.0639341 0.0211801 0.107775)
(-0.056073 0.0365699 0.0567358)
(-0.057421 0.046875 -0.0220946)
(-0.0623118 0.0415445 -0.148714)
(-0.0848897 0.0165271 -0.303685)
(-0.0299489 -0.00955931 -0.358083)
(-0.0315729 -0.00861724 0.129948)
(-0.0722433 -0.010091 0.186074)
(-0.0846868 -0.00477795 0.1792)
(-0.080235 0.00381272 0.15133)
(-0.0687797 0.0141337 0.113785)
(-0.0565798 0.0242844 0.0600858)
(-0.0524883 0.030382 -0.0229095)
(-0.0532214 0.0258207 -0.156163)
(-0.0791404 0.00963489 -0.318974)
(-0.0287609 -0.00532241 -0.373535)
(-0.0315604 -0.00290166 0.129893)
(-0.0726817 -0.00350017 0.186937)
(-0.0858623 -0.00169905 0.180861)
(-0.0815111 0.00125496 0.153464)
(-0.0694285 0.00479766 0.11595)
(-0.0558509 0.00823258 0.0616127)
(-0.0503247 0.0101828 -0.0228675)
(-0.0505162 0.00849114 -0.158836)
(-0.0784991 0.00311304 -0.324667)
(-0.029216 -0.00159047 -0.379253)
(-0.0315604 0.00290166 0.129893)
(-0.0726817 0.00350016 0.186937)
(-0.0858623 0.00169904 0.180861)
(-0.0815111 -0.00125498 0.153464)
(-0.0694285 -0.00479767 0.11595)
(-0.0558509 -0.00823258 0.0616127)
(-0.0503247 -0.0101828 -0.0228675)
(-0.0505162 -0.00849114 -0.158836)
(-0.0784991 -0.00311303 -0.324667)
(-0.029216 0.00159048 -0.379253)
(-0.0315729 0.00861724 0.129948)
(-0.0722433 0.010091 0.186074)
(-0.0846868 0.00477794 0.1792)
(-0.080235 -0.00381273 0.15133)
(-0.0687797 -0.0141337 0.113785)
(-0.0565798 -0.0242844 0.0600858)
(-0.0524883 -0.030382 -0.0229095)
(-0.0532214 -0.0258207 -0.156163)
(-0.0791404 -0.00963488 -0.318974)
(-0.0287609 0.00532242 -0.373535)
(-0.0308939 0.0133145 0.128729)
(-0.0691665 0.0147023 0.180968)
(-0.078723 0.00663887 0.172282)
(-0.0736258 -0.00601457 0.144195)
(-0.0639341 -0.0211801 0.107775)
(-0.056073 -0.0365699 0.0567358)
(-0.057421 -0.046875 -0.0220946)
(-0.0623118 -0.0415445 -0.148714)
(-0.0848897 -0.0165271 -0.303685)
(-0.0299489 0.00955931 -0.358083)
(-0.0277246 0.0138226 0.120438)
(-0.0587644 0.0138144 0.159949)
(-0.0613684 0.00581536 0.14826)
(-0.0546767 -0.00616693 0.122365)
(-0.0484597 -0.0204314 0.091368)
(-0.0493811 -0.0357786 0.0491097)
(-0.0627413 -0.0478074 -0.0177337)
(-0.0794357 -0.0453493 -0.127245)
(-0.100416 -0.0209618 -0.262095)
(-0.037103 0.0115448 -0.316837)
(-0.0172346 0.00642451 0.0816877)
(-0.0322846 0.00603944 0.0910807)
(-0.0264478 0.00252685 0.07891)
(-0.0198722 -0.00256182 0.063228)
(-0.0185349 -0.00850904 0.0479825)
(-0.0276618 -0.0151858 0.0282398)
(-0.0504916 -0.0209833 -0.00554361)
(-0.0775881 -0.0208347 -0.0658783)
(-0.0958147 -0.0108528 -0.143931)
(-0.0413924 0.00492337 -0.189376)
(-0.0241708 -0.0109003 0.151512)
(-0.0225002 -0.0105527 0.0990013)
(0.0221364 -0.00610125 0.0634586)
(0.0532475 6.93601e-05 0.0424511)
(0.0729941 0.00661455 0.0268867)
(0.0765649 0.0138869 0.0101388)
(0.0570357 0.0211687 -0.0175353)
(0.0224347 0.0212668 -0.074394)
(-0.0430497 0.00696349 -0.169377)
(-0.00705391 -0.0162824 -0.256485)
(-0.0435009 -0.0215824 0.210752)
(-0.0466223 -0.0225761 0.167835)
(0.0125667 -0.0138267 0.124219)
(0.0639268 -0.00115411 0.0922949)
(0.105971 0.0131461 0.064509)
(0.133957 0.0286082 0.0332144)
(0.134318 0.0434167 -0.0140949)
(0.118661 0.0435799 -0.103673)
(0.0325722 0.0138691 -0.252049)
(0.0411309 -0.028691 -0.366105)
(-0.048774 -0.0184945 0.22037)
(-0.0562868 -0.0220002 0.186057)
(0.00190018 -0.0145765 0.144669)
(0.0575036 -0.00283846 0.1117)
(0.107773 0.0112271 0.080797)
(0.148658 0.0259597 0.0443113)
(0.162298 0.0385159 -0.00970457)
(0.160606 0.0366344 -0.108321)
(0.0705968 0.00962693 -0.272525)
(0.0596621 -0.019704 -0.392646)
(-0.0494248 -0.0112438 0.220933)
(-0.0580785 -0.0143419 0.189186)
(-0.000919566 -0.00992274 0.149531)
(0.0554935 -0.00249045 0.11735)
(0.108171 0.00658353 0.0862312)
(0.15354 0.0160339 0.0482583)
(0.171486 0.0235559 -0.00834213)
(0.173679 0.0218041 -0.110389)
(0.0798176 0.00600493 -0.280001)
(0.0625249 -0.00995469 -0.401885)
(-0.0491961 -0.0036771 0.220476)
(-0.0577612 -0.00485428 0.18919)
(-0.000726395 -0.00342664 0.150226)
(0.0559532 -0.000956569 0.118608)
(0.109249 0.0020848 0.0877388)
(0.15576 0.00524837 0.0494566)
(0.17453 0.0076938 -0.00811905)
(0.176899 0.00707308 -0.111678)