/*--------------------------------*- C++ -*----------------------------------*\
  =========                 |
  \\      /  F ield         | OpenFOAM: The Open Source CFD Toolbox
   \\    /   O peration     | Website:  https://openfoam.org
    \\  /    A nd           | Version:  9
     \\/     M anipulation  |
\*---------------------------------------------------------------------------*/
FoamFile
{
    format      ascii;
    class       volScalarField;
    location    "0.32";
    object      p;
}
// * * * * * * * * * * * * * * * * * * * * * * * * * * * * * * * * * * * * * //

dimensions      [0 2 -2 0 0 0 0];

internalField   nonuniform List<scalar> 
1000
(
3.01006e-08
-0.000379509
0.000142061
0.00145097
0.00353373
0.00621563
0.00906681
0.0114144
0.0125962
0.0119119
0.000170259
-0.000537093
-8.76475e-05
0.00127004
0.00350283
0.00641878
0.00953564
0.0120587
0.0132018
0.0120369
0.000703223
-0.000210708
0.000208532
0.00163117
0.00402731
0.00719175
0.0105935
0.013261
0.01427
0.0125465
0.00123285
0.0001961
0.000598585
0.00207276
0.00459765
0.00796767
0.011551
0.0142971
0.0151845
0.0130669
0.00155007
0.000460755
0.00085661
0.00235627
0.00494403
0.00841046
0.012089
0.0148693
0.0156914
0.0133818
0.00154987
0.000460577
0.000856472
0.00235617
0.00494396
0.00841041
0.0120889
0.0148693
0.0156914
0.0133818
0.00123219
0.000195538
0.000598159
0.00207246
0.00459744
0.00796754
0.011551
0.014297
0.0151845
0.0130669
0.000701925
-0.000211751
0.000207781
0.00163066
0.00402698
0.00719153
0.0105934
0.0132609
0.0142699
0.0125465
0.000167829
-0.000538807
-8.87559e-05
0.00126934
0.00350239
0.00641851
0.00953549
0.0120587
0.0132018
0.0120369
-4.69054e-06
-0.000382013
0.000140657
0.00145014
0.00353324
0.00621534
0.00906665
0.0114143
0.0125962
0.011912
0.000271958
-0.000112859
0.000416664
0.00162983
0.00353271
0.00600669
0.0086854
0.010995
0.0122135
0.011319
0.000767665
1.15784e-05
0.000486206
0.00169387
0.00362115
0.00616212
0.00896055
0.0113487
0.0125219
0.0110164
0.0016359
0.000588498
0.00102106
0.00223289
0.00421184
0.00685546
0.00982741
0.0122904
0.0133319
0.0112253
0.00237241
0.00113948
0.00153813
0.00275346
0.00478052
0.00753026
0.0106223
0.013131
0.0140586
0.0115445
0.00278279
0.00146329
0.00184385
0.00306006
0.00511193
0.00791974
0.0110724
0.0136017
0.0144694
0.0117662
0.00278261
0.00146314
0.00184373
0.00305996
0.00511186
0.00791969
0.0110724
0.0136017
0.0144694
0.0117662
0.00237185
0.00113899
0.00153775
0.00275319
0.00478033
0.00753013
0.0106222
0.013131
0.0140586
0.0115445
0.00163485
0.000587627
0.00102041
0.00223244
0.00421153
0.00685525
0.00982729
0.0122904
0.0133319
0.0112253
0.000765956
1.02522e-05
0.000485281
0.00169326
0.00362075
0.00616186
0.0089604
0.0113486
0.0125218
0.0110164
0.000269455
-0.000114597
0.000415542
0.00162912
0.00353226
0.00600641
0.00868523
0.0109949
0.0122135
0.0113189
-0.00097032
-0.00148456
-0.00099331
0.00015985
0.00204108
0.00465155
0.00772938
0.0106519
0.012433
0.0113453
-0.000189485
-0.00121319
-0.00078229
0.000361213
0.00226053
0.00494834
0.00816722
0.0112154
0.0129298
0.0108128
0.00107097
-0.000365683
-3.61583e-06
0.00110321
0.00301039
0.00578973
0.00917617
0.0123309
0.0138946
0.0108928
0.00209433
0.000395092
0.000697687
0.00176881
0.00368143
0.00653292
0.0100377
0.0132522
0.0146851
0.0111151
0.00264817
0.000826273
0.00109565
0.00214508
0.00405873
0.00694884
0.010508
0.0137466
0.0151112
0.0112876
0.00264803
0.00082615
0.00109555
0.00214501
0.00405868
0.0069488
0.010508
0.0137466
0.0151112
0.0112876
0.0020939
0.000394716
0.000697388
0.00176858
0.00368127
0.0065328
0.0100376
0.0132522
0.0146851
0.0111151
0.00107021
-0.000366331
-4.12067e-06
0.00110284
0.00301012
0.00578954
0.00917605
0.0123308
0.0138945
0.0108928
-0.000190596
-0.00121411
-0.000782986
0.000360721
0.00226019
0.0049481
0.00816706
0.0112153
0.0129297
0.0108128
-0.000971729
-0.00148569
-0.000994133
0.000159283
0.00204069
0.00465128
0.00772921
0.0106518
0.0124329
0.0113452
-0.00404214
-0.00467111
-0.00421799
-0.00313411
-0.00124865
0.00165896
0.00556741
0.00987445
0.0131326
0.0123395
-0.00294826
-0.00423803
-0.00385275
-0.00277201
-0.000852107
0.00217513
0.00629738
0.0108948
0.0140839
0.0117405
-0.00123872
-0.00307602
-0.00281208
-0.00184526
-5.38147e-06
0.00305922
0.00732939
0.012128
0.015232
0.0117826
0.000123591
-0.00206208
-0.00190608
-0.00104876
0.00070477
0.00373727
0.00812952
0.0130479
0.0160614
0.0119565
0.000850111
-0.00149789
-0.00140271
-0.000609294
0.00109561
0.00412212
0.0085475
0.013512
0.016476
0.0120931
0.00085001
-0.00149798
-0.00140279
-0.00060935
0.00109557
0.00412209
0.00854748
0.0135119
0.016476
0.0120931
0.000123284
-0.00206235
-0.0019063
-0.00104893
0.000704643
0.00373718
0.00812945
0.0130478
0.0160613
0.0119565
-0.00123924
-0.00307648
-0.00281245
-0.00184554
-5.59542e-06
0.00305906
0.00732927
0.0121279
0.015232
0.0117825
-0.00294899
-0.00423866
-0.00385326
-0.00277239
-0.000852385
0.00217492
0.00629722
0.0108947
0.0140839
0.0117404
-0.004043
-0.00467186
-0.00421858
-0.00313455
-0.00124897
0.00165873
0.00556725
0.00987433
0.0131325
0.0123394
-0.00962402
-0.0102256
-0.00975102
-0.00877731
-0.00699233
-0.00380319
0.00132806
0.00812765
0.0145389
0.0156176
-0.00818713
-0.0096204
-0.00924432
-0.00830438
-0.00651302
-0.00319958
0.00221981
0.00958267
0.0159953
0.0153569
-0.00601674
-0.00815194
-0.00801538
-0.00737825
-0.00591973
-0.00283452
0.00258202
0.0102844
0.0169597
0.0154937
-0.00431617
-0.00689487
-0.00696452
-0.00659712
-0.00542735
-0.00253513
0.00283653
0.0107442
0.0175412
0.0156751
-0.00342093
-0.00620479
-0.00638798
-0.00616995
-0.00516033
-0.00239214
0.002958
0.0109526
0.0177969
0.015784
-0.00342101
-0.00620486
-0.00638804
-0.00616999
-0.00516035
-0.00239216
0.00295798
0.0109526
0.0177968
0.0157839
-0.00431638
-0.00689507
-0.00696468
-0.00659725
-0.00542745
-0.0025352
0.00283646
0.0107441
0.0175411
0.0156751
-0.0060171
-0.00815227
-0.00801565
-0.00737847
-0.0059199
-0.00283466
0.0025819
0.0102843
0.0169596
0.0154936
-0.00818762
-0.00962084
-0.00924468
-0.00830466
-0.00651324
-0.00319976
0.00221967
0.00958254
0.0159952
0.0153568
-0.00962459
-0.0102261
-0.00975143
-0.00877763
-0.00699258
-0.0038034
0.00132789
0.0081275
0.0145388
0.0156175
-0.0185408
-0.0186436
-0.0178776
-0.0169799
-0.0154326
-0.0120584
-0.00533763
0.00537558
0.0174911
0.0238339
-0.0167092
-0.0178862
-0.0173328
-0.0166166
-0.0152853
-0.0121656
-0.00555551
0.00571678
0.0184395
0.0242101
-0.014084
-0.0161577
-0.0160759
-0.0160373
-0.0155442
-0.0132409
-0.00709961
0.00462691
0.0182816
0.0244312
-0.0120735
-0.0146981
-0.0149913
-0.0154978
-0.0156683
-0.0139819
-0.00819159
0.00378478
0.018003
0.024535
-0.0110319
-0.0139064
-0.0143974
-0.0151897
-0.0156994
-0.0143272
-0.00871101
0.00336837
0.0178348
0.0245645
-0.011032
-0.0139064
-0.0143974
-0.0151897
-0.0156994
-0.0143273
-0.00871103
0.00336834
0.0178348
0.0245645
-0.0120737
-0.0146983
-0.0149914
-0.0154979
-0.0156684
-0.013982
-0.00819166
0.00378471
0.018003
0.0245349
-0.0140843
-0.0161579
-0.0160761
-0.0160375
-0.0155443
-0.013241
-0.00709973
0.0046268
0.0182814
0.0244311
-0.0167095
-0.0178865
-0.0173331
-0.0166169
-0.0152855
-0.0121658
-0.00555567
0.00571663
0.0184393
0.0242099
-0.0185412
-0.018644
-0.0178779
-0.0169801
-0.0154328
-0.0120586
-0.00533782
0.00537541
0.017491
0.0238337
-0.0321971
-0.0301968
-0.028276
-0.0270652
-0.0257054
-0.0223007
-0.0139539
0.00188793
0.0229727
0.0411974
-0.0297709
-0.0292369
-0.0278361
-0.0271828
-0.0265709
-0.0242519
-0.0170927
-0.00128498
0.0209828
0.0414028
-0.0266187
-0.0272051
-0.0266389
-0.0272115
-0.0281687
-0.0276022
-0.0217867
-0.0057044
0.0183285
0.0413611
-0.0242991
-0.0255353
-0.0255621
-0.0270278
-0.0291207
-0.029749
-0.0247606
-0.00846985
0.01664
0.0412923
-0.0231262
-0.0246457
-0.0249695
-0.0268768
-0.0295192
-0.0307128
-0.0260948
-0.00970272
0.0158877
0.0412352
-0.0231262
-0.0246457
-0.0249695
-0.0268768
-0.0295192
-0.0307128
-0.0260948
-0.00970275
0.0158877
0.0412351
-0.0242992
-0.0255354
-0.0255622
-0.0270278
-0.0291208
-0.0297491
-0.0247606
-0.00846993
0.0166399
0.0412922
-0.0266189
-0.0272053
-0.026639
-0.0272116
-0.0281688
-0.0276024
-0.0217868
-0.00570453
0.0183284
0.041361
-0.0297711
-0.0292371
-0.0278363
-0.0271829
-0.026571
-0.0242521
-0.0170928
-0.00128514
0.0209826
0.0414026
-0.0321974
-0.030197
-0.0282762
-0.0270655
-0.0257056
-0.0223009
-0.0139541
0.00188775
0.0229725
0.0411972
-0.0548112
-0.0447888
-0.0396798
-0.0369201
-0.0351382
-0.0314765
-0.0220117
-0.00026079
0.0322507
0.0744967
-0.0511661
-0.0432503
-0.0391317
-0.0376755
-0.0374235
-0.0359276
-0.0292816
-0.0090594
0.024697
0.0748046
-0.0470076
-0.0404061
-0.0374698
-0.0378607
-0.0398989
-0.0409138
-0.0364694
-0.016286
0.0198703
0.0759359
-0.0441434
-0.0382306
-0.0360441
-0.037628
-0.0411949
-0.0437773
-0.0405289
-0.0200812
0.017639
0.0770092
-0.0427571
-0.0371229
-0.0352905
-0.037432
-0.0416997
-0.0449868
-0.0422457
-0.0216284
0.0168262
0.0775047
-0.0427571
-0.0371229
-0.0352905
-0.037432
-0.0416997
-0.0449869
-0.0422457
-0.0216285
0.0168261
0.0775047
-0.0441435
-0.0382307
-0.0360442
-0.037628
-0.041195
-0.0437773
-0.0405289
-0.0200813
0.0176389
0.0770091
-0.0470077
-0.0404063
-0.0374699
-0.0378608
-0.039899
-0.0409139
-0.0364695
-0.0162861
0.0198702
0.0759358
-0.0511662
-0.0432505
-0.0391318
-0.0376757
-0.0374236
-0.0359277
-0.0292818
-0.00905959
0.0246968
0.0748044
-0.0548113
-0.0447889
-0.0396799
-0.0369202
-0.0351384
-0.0314767
-0.0220119
-0.000260994
0.0322505
0.0744964
-0.0871024
-0.0598448
-0.0504744
-0.0440734
-0.0406219
-0.0358417
-0.0238015
0.0063138
0.0522033
0.150742
-0.0792729
-0.0562494
-0.049238
-0.0452885
-0.0440414
-0.0419515
-0.0337138
-0.00465814
0.0453654
0.161932
-0.0730217
-0.0517603
-0.0463515
-0.0447646
-0.0463492
-0.0470032
-0.0410727
-0.0105857
0.0457088
0.170414
-0.0692758
-0.0487102
-0.0441495
-0.044012
-0.0473559
-0.0496742
-0.0447832
-0.0130424
0.046524
0.175709
-0.0676053
-0.0472508
-0.0430565
-0.0435671
-0.0477056
-0.0507683
-0.0462848
-0.0139997
0.0469744
0.177981
-0.0676053
-0.0472508
-0.0430565
-0.0435671
-0.0477056
-0.0507684
-0.0462848
-0.0139997
0.0469744
0.177981
-0.0692758
-0.0487102
-0.0441496
-0.0440121
-0.0473559
-0.0496743
-0.0447833
-0.0130425
0.0465239
0.175709
-0.0730218
-0.0517604
-0.0463516
-0.0447647
-0.0463493
-0.0470033
-0.0410729
-0.0105859
0.0457086
0.170413
-0.079273
-0.0562494
-0.0492381
-0.0452886
-0.0440416
-0.0419517
-0.033714
-0.00465834
0.0453651
0.161932
-0.0871025
-0.0598449
-0.0504745
-0.0440735
-0.0406221
-0.0358419
-0.0238017
0.00631358
0.052203
0.150742
-0.197835
-0.0730942
-0.0479214
-0.0387781
-0.0337724
-0.0267606
-0.0101638
0.0340965
0.119169
0.324131
-0.18572
-0.0608821
-0.0406425
-0.0357422
-0.0341586
-0.0303176
-0.016299
0.0305271
0.12909
0.35814
-0.177197
-0.0525485
-0.0345733
-0.0325829
-0.0340519
-0.0326545
-0.019766
0.0299867
0.137884
0.378529
-0.172385
-0.0478716
-0.0308311
-0.0304636
-0.0337692
-0.0338094
-0.0214352
0.0298942
0.141948
0.388255
-0.170303
-0.0458445
-0.0291541
-0.0294762
-0.0336082
-0.0343333
-0.0221853
0.0297996
0.143554
0.391927
-0.170303
-0.0458445
-0.0291541
-0.0294762
-0.0336082
-0.0343333
-0.0221853
0.0297996
0.143553
0.391927
-0.172385
-0.0478716
-0.0308311
-0.0304637
-0.0337693
-0.0338095
-0.0214353
0.029894
0.141948
0.388254
-0.177197
-0.0525485
-0.0345733
-0.032583
-0.034052
-0.0326546
-0.0197662
0.0299865
0.137883
0.378529
-0.18572
-0.0608821
-0.0406426
-0.0357423
-0.0341587
-0.0303177
-0.0162992
0.0305269
0.12909
0.35814
-0.197835
-0.0730942
-0.0479215
-0.0387782
-0.0337725
-0.0267608
-0.010164
0.0340963
0.119169
0.324131
)
;

boundaryField
{
    top
    {
        type            zeroGradient;
    }
    others
    {
        type            zeroGradient;
    }
}


// ************************************************************************* //
