/*--------------------------------*- C++ -*----------------------------------*\
  =========                 |
  \\      /  F ield         | OpenFOAM: The Open Source CFD Toolbox
   \\    /   O peration     | Website:  https://openfoam.org
    \\  /    A nd           | Version:  9
     \\/     M anipulation  |
\*---------------------------------------------------------------------------*/
FoamFile
{
    format      ascii;
    class       volVectorField;
    location    "0.32";
    object      U;
}
// * * * * * * * * * * * * * * * * * * * * * * * * * * * * * * * * * * * * * //

dimensions      [0 1 -1 0 0 0 0];

internalField   nonuniform List<vector> 
1000
(
(-0.000115258 -0.000357768 0.000373313)
(-0.00176181 -0.000254251 0.00103659)
(-0.00494838 -0.000195552 0.00127057)
(-0.00810073 -0.000274082 0.00127791)
(-0.0106173 -0.000499249 0.00111908)
(-0.0117796 -0.000839216 0.000753684)
(-0.0108797 -0.00119127 0.000181968)
(-0.00766237 -0.00135054 -0.000429953)
(-0.00282329 -0.00110678 -0.000596645)
(-7.73073e-05 -0.000312923 6.11147e-05)
(-0.000369276 -0.00114079 0.000611551)
(-0.00376234 -0.00120215 0.00206474)
(-0.0100224 -0.00116293 0.00255898)
(-0.0160881 -0.00136198 0.00243763)
(-0.020756 -0.00187008 0.00185348)
(-0.0227389 -0.00262131 0.000774183)
(-0.0208076 -0.00337597 -0.000713237)
(-0.0145857 -0.00365041 -0.0020516)
(-0.00552055 -0.00298381 -0.00211474)
(-0.000292795 -0.00106424 -0.000193458)
(-0.00050424 -0.00156899 0.000421776)
(-0.00485524 -0.00200483 0.00217142)
(-0.0127843 -0.00207826 0.00277079)
(-0.0203886 -0.00229822 0.0025477)
(-0.0261493 -0.00280248 0.00168174)
(-0.0284781 -0.00353698 0.000151961)
(-0.0258412 -0.00421767 -0.00188284)
(-0.0178153 -0.00438069 -0.00356066)
(-0.00637744 -0.0035842 -0.00334096)
(-0.000105905 -0.0015157 -0.000422395)
(-0.00054801 -0.00125622 0.00017999)
(-0.00537538 -0.00171416 0.00198992)
(-0.014183 -0.00180884 0.00262431)
(-0.0226013 -0.00196253 0.00235609)
(-0.0289394 -0.00229871 0.00135804)
(-0.0313996 -0.00278506 -0.000392702)
(-0.0282903 -0.00320096 -0.00270651)
(-0.0192213 -0.00325895 -0.00452343)
(-0.00648775 -0.00267672 -0.00406741)
(0.000163102 -0.00122283 -0.000537173)
(-0.000556478 -0.000471148 3.97275e-05)
(-0.00557237 -0.000659537 0.00184806)
(-0.0147483 -0.000700237 0.00249413)
(-0.0235121 -0.000752968 0.00221439)
(-0.0300943 -0.000865597 0.00117076)
(-0.0326037 -0.00102712 -0.000666829)
(-0.029272 -0.00116536 -0.0030835)
(-0.0197284 -0.00117752 -0.00494519)
(-0.00643323 -0.000970673 -0.00437253)
(0.000326852 -0.00045938 -0.000577716)
(-0.000556478 0.000471182 3.97285e-05)
(-0.00557237 0.000659558 0.00184806)
(-0.0147483 0.000700252 0.00249413)
(-0.0235121 0.000752979 0.00221439)
(-0.0300943 0.000865605 0.00117076)
(-0.0326037 0.00102713 -0.00066683)
(-0.029272 0.00116536 -0.0030835)
(-0.0197284 0.00117752 -0.00494519)
(-0.00643323 0.000970673 -0.00437253)
(0.000326852 0.000459378 -0.000577716)
(-0.000548007 0.00125626 0.000179994)
(-0.00537538 0.00171418 0.00198992)
(-0.014183 0.00180885 0.00262432)
(-0.0226013 0.00196254 0.00235609)
(-0.0289394 0.00229872 0.00135804)
(-0.0313996 0.00278507 -0.000392703)
(-0.0282903 0.00320096 -0.00270651)
(-0.0192213 0.00325896 -0.00452343)
(-0.00648775 0.00267672 -0.00406741)
(0.000163102 0.00122282 -0.000537173)
(-0.00050423 0.00156902 0.000421789)
(-0.00485524 0.00200484 0.00217143)
(-0.0127843 0.00207827 0.0027708)
(-0.0203886 0.00229823 0.0025477)
(-0.0261493 0.00280248 0.00168174)
(-0.0284781 0.00353698 0.000151959)
(-0.0258412 0.00421768 -0.00188284)
(-0.0178153 0.00438069 -0.00356066)
(-0.00637744 0.0035842 -0.00334096)
(-0.000105905 0.0015157 -0.000422396)
(-0.000369242 0.00114077 0.000611587)
(-0.00376231 0.00120213 0.00206477)
(-0.0100224 0.00116294 0.002559)
(-0.0160881 0.00136199 0.00243763)
(-0.020756 0.00187008 0.00185348)
(-0.0227389 0.00262132 0.000774181)
(-0.0208076 0.00337597 -0.00071324)
(-0.0145857 0.00365042 -0.0020516)
(-0.00552056 0.00298381 -0.00211474)
(-0.000292795 0.00106424 -0.000193458)
(-0.000115204 0.000357716 0.000373369)
(-0.00176178 0.00025422 0.00103663)
(-0.00494841 0.000195548 0.00127058)
(-0.00810076 0.000274083 0.00127791)
(-0.0106173 0.000499251 0.00111908)
(-0.0117796 0.000839218 0.000753683)
(-0.0108797 0.00119127 0.000181968)
(-0.00766238 0.00135055 -0.000429953)
(-0.00282329 0.00110679 -0.000596645)
(-7.73076e-05 0.000312923 6.11157e-05)
(-0.000721888 -0.00103138 0.00308086)
(-0.00433095 -0.00117437 0.00599705)
(-0.0102472 -0.00114166 0.00682142)
(-0.0159555 -0.00116691 0.00652327)
(-0.0204535 -0.00131726 0.00535772)
(-0.0225758 -0.00159575 0.00323242)
(-0.0211591 -0.00190595 0.000243087)
(-0.0155816 -0.00195671 -0.00277126)
(-0.00674268 -0.00144186 -0.00392702)
(-0.000865696 -0.000120229 -0.00142567)
(-0.00198511 -0.00277214 0.00504917)
(-0.0103428 -0.00351764 0.0111432)
(-0.0232983 -0.00355505 0.012796)
(-0.0354568 -0.00364662 0.0116347)
(-0.0445782 -0.00402442 0.00828716)
(-0.0484109 -0.0046802 0.00279283)
(-0.0448235 -0.00535978 -0.00424519)
(-0.0328911 -0.00537575 -0.0104909)
(-0.0147685 -0.00406206 -0.0114979)
(-0.002297 -0.000931695 -0.0038849)
(-0.00271817 -0.00333978 0.00503638)
(-0.0138928 -0.00465797 0.0122874)
(-0.0309577 -0.00484091 0.0141889)
(-0.046698 -0.00495778 0.0123608)
(-0.0582007 -0.00535599 0.00754235)
(-0.0626829 -0.00602276 -0.000115711)
(-0.0575331 -0.00663664 -0.00956032)
(-0.0417517 -0.00652757 -0.0173396)
(-0.0183987 -0.00505733 -0.0173498)
(-0.00269327 -0.00174499 -0.00564008)
(-0.00304543 -0.00251344 0.00455661)
(-0.0156612 -0.00367686 0.0120661)
(-0.0349032 -0.00386672 0.014002)
(-0.0525045 -0.00394673 0.0118096)
(-0.0652003 -0.00420975 0.00621728)
(-0.0699052 -0.00465125 -0.00257072)
(-0.0637641 -0.00500641 -0.0132563)
(-0.0458279 -0.004869 -0.0216849)
(-0.0197143 -0.00382775 -0.0208341)
(-0.00262408 -0.00151483 -0.0066076)
(-0.00315359 -0.000917364 0.00422505)
(-0.0163429 -0.00136972 0.0117449)
(-0.0364936 -0.00144724 0.013678)
(-0.0548709 -0.00147315 0.011348)
(-0.0680581 -0.0015595 0.00545422)
(-0.0728276 -0.0017065 -0.00378507)
(-0.0662262 -0.00181716 -0.0149516)
(-0.0473502 -0.00175899 -0.0236028)
(-0.0200834 -0.00139444 -0.0223257)
(-0.00251229 -0.000584898 -0.00700173)
(-0.00315359 0.000917386 0.00422505)
(-0.0163429 0.00136972 0.0117449)
(-0.0364936 0.00144724 0.013678)
(-0.0548708 0.00147315 0.011348)
(-0.0680581 0.0015595 0.00545422)
(-0.0728276 0.0017065 -0.00378507)
(-0.0662262 0.00181717 -0.0149516)
(-0.0473502 0.001759 -0.0236028)
(-0.0200834 0.00139444 -0.0223257)
(-0.00251229 0.000584899 -0.00700172)
(-0.00304542 0.00251346 0.00455662)
(-0.0156612 0.00367686 0.0120661)
(-0.0349031 0.00386672 0.014002)
(-0.0525045 0.00394673 0.0118096)
(-0.0652003 0.00420975 0.00621728)
(-0.0699052 0.00465125 -0.00257072)
(-0.0637641 0.00500642 -0.0132563)
(-0.0458279 0.00486901 -0.0216849)
(-0.0197144 0.00382776 -0.0208341)
(-0.00262408 0.00151483 -0.0066076)
(-0.00271816 0.0033398 0.00503639)
(-0.0138928 0.00465796 0.0122874)
(-0.0309577 0.0048409 0.0141889)
(-0.046698 0.00495778 0.0123608)
(-0.0582007 0.005356 0.00754235)
(-0.0626828 0.00602276 -0.000115714)
(-0.0575331 0.00663664 -0.00956032)
(-0.0417517 0.00652758 -0.0173396)
(-0.0183987 0.00505733 -0.0173498)
(-0.00269327 0.00174499 -0.00564008)
(-0.00198508 0.00277212 0.0050492)
(-0.0103428 0.00351762 0.0111432)
(-0.0232983 0.00355504 0.012796)
(-0.0354568 0.00364662 0.0116347)
(-0.0445782 0.00402442 0.00828716)
(-0.0484109 0.00468021 0.00279282)
(-0.0448235 0.00535978 -0.00424519)
(-0.0328911 0.00537576 -0.0104909)
(-0.0147685 0.00406207 -0.0114979)
(-0.002297 0.000931697 -0.0038849)
(-0.000721856 0.00103135 0.00308089)
(-0.00433093 0.00117434 0.00599707)
(-0.0102472 0.00114165 0.00682143)
(-0.0159555 0.0011669 0.00652327)
(-0.0204536 0.00131726 0.00535772)
(-0.0225759 0.00159575 0.00323242)
(-0.0211591 0.00190596 0.000243087)
(-0.0155816 0.00195671 -0.00277126)
(-0.00674268 0.00144186 -0.00392702)
(-0.000865697 0.000120229 -0.00142566)
(-0.00117284 -0.00164714 0.00865274)
(-0.00618007 -0.00198772 0.0151819)
(-0.0139512 -0.00194796 0.016732)
(-0.0214348 -0.00188133 0.0157284)
(-0.0276453 -0.00191569 0.0127577)
(-0.0312518 -0.00210461 0.00762313)
(-0.0305336 -0.00236764 0.000437919)
(-0.0239774 -0.00241778 -0.00709209)
(-0.011782 -0.00176568 -0.0108351)
(-0.00217563 5.06527e-05 -0.00581075)
(-0.00330026 -0.00425699 0.0142288)
(-0.0155311 -0.00554583 0.0275481)
(-0.033478 -0.00553963 0.0305118)
(-0.0501939 -0.0053531 0.0272299)
(-0.0632226 -0.00538382 0.0191014)
(-0.0698551 -0.00573543 0.00622649)
(-0.0669515 -0.0061907 -0.010247)
(-0.0520052 -0.00612543 -0.0256237)
(-0.0260488 -0.0045893 -0.0299877)
(-0.00517739 -0.000636105 -0.0136786)
(-0.00460138 -0.00492576 0.0152086)
(-0.0213193 -0.00692242 0.0309686)
(-0.0454637 -0.00702589 0.0342058)
(-0.0674795 -0.00675806 0.0291913)
(-0.0840753 -0.00666811 0.0175925)
(-0.0918422 -0.00685362 -0.000215852)
(-0.0870099 -0.0070804 -0.0221174)
(-0.0667558 -0.00681037 -0.0412562)
(-0.0329369 -0.00526834 -0.0440553)
(-0.00630306 -0.00152059 -0.0188111)
(-0.00521828 -0.00360852 0.0148711)
(-0.0242775 -0.00528909 0.0312305)
(-0.0517328 -0.00540746 0.0343991)
(-0.0764949 -0.00517238 0.0284087)
(-0.094832 -0.00502866 0.0149576)
(-0.10298 -0.00504404 -0.00541337)
(-0.0968596 -0.00505549 -0.0300769)
(-0.0736214 -0.00478237 -0.0508352)
(-0.0357216 -0.00377655 -0.0521709)
(-0.00652135 -0.00135019 -0.0215986)
(-0.00543454 -0.00129848 0.0145002)
(-0.0254296 -0.00193905 0.030926)
(-0.0542609 -0.00198817 0.0340296)
(-0.0801542 -0.00189462 0.027654)
(-0.0991894 -0.0018263 0.0134724)
(-0.107441 -0.0018088 -0.00791059)
(-0.100717 -0.00178393 -0.033634)
(-0.0761994 -0.0016751 -0.0549604)
(-0.0366364 -0.00133916 -0.0555758)
(-0.00650847 -0.000523808 -0.0227313)
(-0.00543454 0.0012985 0.0145002)
(-0.0254296 0.00193904 0.030926)
(-0.0542608 0.00198816 0.0340296)
(-0.0801542 0.00189462 0.027654)
(-0.0991894 0.0018263 0.0134724)
(-0.107441 0.00180881 -0.00791059)
(-0.100717 0.00178393 -0.033634)
(-0.0761994 0.0016751 -0.0549604)
(-0.0366364 0.00133917 -0.0555758)
(-0.00650847 0.000523809 -0.0227313)
(-0.00521828 0.00360854 0.0148711)
(-0.0242775 0.00528909 0.0312305)
(-0.0517328 0.00540746 0.0343991)
(-0.0764949 0.00517238 0.0284087)
(-0.094832 0.00502866 0.0149576)
(-0.10298 0.00504404 -0.00541337)
(-0.0968596 0.0050555 -0.0300769)
(-0.0736214 0.00478237 -0.0508352)
(-0.0357216 0.00377656 -0.0521709)
(-0.00652134 0.00135019 -0.0215986)
(-0.00460138 0.00492577 0.0152086)
(-0.0213192 0.00692241 0.0309687)
(-0.0454636 0.00702589 0.0342059)
(-0.0674795 0.00675806 0.0291913)
(-0.0840753 0.00666811 0.0175925)
(-0.0918421 0.00685362 -0.000215854)
(-0.0870099 0.0070804 -0.0221174)
(-0.0667558 0.00681037 -0.0412562)
(-0.0329369 0.00526834 -0.0440553)
(-0.00630306 0.00152059 -0.0188111)
(-0.00330025 0.00425699 0.0142288)
(-0.015531 0.00554582 0.0275481)
(-0.033478 0.00553962 0.0305118)
(-0.0501939 0.0053531 0.0272299)
(-0.0632226 0.00538382 0.0191014)
(-0.0698551 0.00573544 0.00622648)
(-0.0669515 0.0061907 -0.010247)
(-0.0520052 0.00612543 -0.0256237)
(-0.0260488 0.0045893 -0.0299877)
(-0.00517739 0.000636106 -0.0136786)
(-0.00117283 0.00164713 0.00865272)
(-0.00618007 0.00198771 0.0151819)
(-0.0139512 0.00194795 0.016732)
(-0.0214348 0.00188133 0.0157284)
(-0.0276453 0.00191569 0.0127577)
(-0.0312518 0.00210461 0.00762313)
(-0.0305336 0.00236764 0.000437921)
(-0.0239774 0.00241778 -0.00709209)
(-0.011782 0.00176568 -0.0108351)
(-0.00217563 -5.06536e-05 -0.00581074)
(-0.00163014 -0.00228315 0.0161744)
(-0.00789502 -0.00277133 0.0271066)
(-0.0172304 -0.0026402 0.0293554)
(-0.026341 -0.00236891 0.0275451)
(-0.0346112 -0.00214878 0.0227008)
(-0.0407797 -0.00210804 0.0142448)
(-0.0424359 -0.00226397 0.00176213)
(-0.0363925 -0.00247064 -0.012616)
(-0.0208295 -0.00198626 -0.0216599)
(-0.00510915 8.78455e-05 -0.0141852)
(-0.00457004 -0.00579015 0.0265883)
(-0.0203238 -0.00748976 0.0487264)
(-0.04269 -0.00718853 0.0529601)
(-0.0636944 -0.00634971 0.0472046)
(-0.0813043 -0.00553293 0.0337955)
(-0.0927045 -0.00502489 0.0123482)
(-0.0934644 -0.00489084 -0.0163999)
(-0.078149 -0.00501287 -0.0458293)
(-0.0445277 -0.00419244 -0.0584641)
(-0.0109061 -0.000418395 -0.031768)
(-0.00639147 -0.0065597 0.029051)
(-0.0281649 -0.00906686 0.0552307)
(-0.0586521 -0.00874794 0.0597482)
(-0.0865802 -0.00755371 0.0510848)
(-0.109013 -0.00622159 0.0320399)
(-0.122269 -0.00507029 0.00256285)
(-0.121104 -0.00434897 -0.0353609)
(-0.0994788 -0.00418357 -0.0719633)
(-0.055784 -0.00381229 -0.0836265)
(-0.0132398 -0.00110527 -0.0423116)
(-0.00726445 -0.00472866 0.0291153)
(-0.0321887 -0.00678809 0.0563771)
(-0.0670056 -0.00655876 0.0607319)
(-0.0984633 -0.00556784 0.0504773)
(-0.123128 -0.00439995 0.0285065)
(-0.136948 -0.0032985 -0.00501659)
(-0.134297 -0.00254459 -0.0473067)
(-0.109064 -0.00235588 -0.0869186)
(-0.0603951 -0.00233794 -0.097187)
(-0.0139696 -0.000946705 -0.0477048)
(-0.00757126 -0.00168612 0.0288303)
(-0.0337453 -0.00246209 0.0562806)
(-0.0703402 -0.00237939 0.060526)
(-0.103223 -0.00200166 0.0496667)
(-0.128748 -0.00154978 0.0265935)
(-0.142694 -0.00111721 -0.00843839)
(-0.139317 -0.000801664 -0.052353)
(-0.112582 -0.000726842 -0.0930161)
(-0.0619845 -0.000764631 -0.102594)
(-0.0141583 -0.000359236 -0.0498069)
(-0.00757126 0.00168614 0.0288303)
(-0.0337453 0.00246209 0.0562806)
(-0.0703402 0.00237939 0.060526)
(-0.103223 0.00200165 0.0496668)
(-0.128748 0.00154978 0.0265935)
(-0.142694 0.00111721 -0.00843839)
(-0.139317 0.000801664 -0.052353)
(-0.112582 0.000726843 -0.0930161)
(-0.0619845 0.000764634 -0.102594)
(-0.0141583 0.000359238 -0.0498069)
(-0.00726444 0.00472867 0.0291153)
(-0.0321887 0.00678809 0.0563771)
(-0.0670056 0.00655875 0.0607319)
(-0.0984633 0.00556783 0.0504773)
(-0.123128 0.00439994 0.0285065)
(-0.136948 0.0032985 -0.00501659)
(-0.134297 0.00254459 -0.0473067)
(-0.109064 0.00235588 -0.0869185)
(-0.0603951 0.00233794 -0.097187)
(-0.0139696 0.000946707 -0.0477048)
(-0.00639147 0.00655971 0.029051)
(-0.0281648 0.00906685 0.0552307)
(-0.0586521 0.00874794 0.0597482)
(-0.0865802 0.00755371 0.0510848)
(-0.109013 0.00622159 0.0320399)
(-0.122269 0.00507029 0.00256285)
(-0.121104 0.00434898 -0.0353609)
(-0.0994788 0.00418357 -0.0719633)
(-0.055784 0.00381229 -0.0836265)
(-0.0132398 0.00110527 -0.0423116)
(-0.00457003 0.00579015 0.0265883)
(-0.0203238 0.00748975 0.0487264)
(-0.04269 0.00718853 0.0529602)
(-0.0636944 0.00634971 0.0472046)
(-0.0813043 0.00553294 0.0337955)
(-0.0927045 0.00502489 0.0123482)
(-0.0934644 0.00489085 -0.0163999)
(-0.078149 0.00501287 -0.0458293)
(-0.0445277 0.00419244 -0.0584641)
(-0.0109061 0.000418397 -0.031768)
(-0.00163014 0.00228314 0.0161744)
(-0.00789502 0.00277133 0.0271066)
(-0.0172304 0.0026402 0.0293554)
(-0.026341 0.00236891 0.0275451)
(-0.0346112 0.00214878 0.0227008)
(-0.0407797 0.00210804 0.0142448)
(-0.0424359 0.00226397 0.00176213)
(-0.0363925 0.00247064 -0.012616)
(-0.0208295 0.00198626 -0.0216599)
(-0.00510915 -8.7845e-05 -0.0141852)
(-0.00236856 -0.00295198 0.025982)
(-0.00998427 -0.00349408 0.0417478)
(-0.0204452 -0.00306854 0.0443325)
(-0.0307213 -0.00227877 0.0415084)
(-0.0410937 -0.00138705 0.0348062)
(-0.0508928 -0.000653157 0.0228461)
(-0.057187 -0.000383896 0.00386239)
(-0.0543306 -0.00086492 -0.0204192)
(-0.0366956 -0.00128535 -0.0391993)
(-0.011305 -9.38103e-05 -0.030479)
(-0.00620768 -0.00735558 0.0424617)
(-0.0254862 -0.0092248 0.0745651)
(-0.0514864 -0.0080867 0.0797399)
(-0.0759353 -0.00571986 0.0713232)
(-0.0980435 -0.00284977 0.0526749)
(-0.115609 -0.000123348 0.0221237)
(-0.123143 0.00153412 -0.0215282)
(-0.111512 0.000881635 -0.0712095)
(-0.0732958 -0.00109863 -0.100928)
(-0.0218143 -0.000436968 -0.0651347)
(-0.00849855 -0.00817612 0.0468205)
(-0.0351368 -0.0109087 0.0849002)
(-0.0708875 -0.00950827 0.0905427)
(-0.10351 -0.00630551 0.07829)
(-0.131255 -0.0022649 0.0521512)
(-0.150921 0.001772 0.0106909)
(-0.156223 0.00445674 -0.0460858)
(-0.137659 0.00389404 -0.107415)
(-0.088799 0.000654532 -0.138986)
(-0.0258331 -0.000634529 -0.0839634)
(-0.00956488 -0.00581166 0.0474906)
(-0.0399901 -0.00803562 0.0872958)
(-0.0808469 -0.00696885 0.0928305)
(-0.117491 -0.00441996 0.0786204)
(-0.147602 -0.00116774 0.048847)
(-0.167464 0.00209863 0.00229727)
(-0.170699 0.00422896 -0.0601807)
(-0.148231 0.00374687 -0.126138)
(-0.0947445 0.00106944 -0.15759)
(-0.0272848 -0.000436608 -0.0928187)
(-0.00992491 -0.00205604 0.0473908)
(-0.0418137 -0.00288933 0.0875791)
(-0.0847113 -0.00249843 0.0930427)
(-0.122905 -0.00154788 0.078149)
(-0.153833 -0.00033089 0.0471044)
(-0.173622 0.000890942 -0.00121504)
(-0.175903 0.00166181 -0.0656791)
(-0.1519 0.00146596 -0.133228)
(-0.0968218 0.000464426 -0.164556)
(-0.027794 -0.000145646 -0.0961079)
(-0.00992491 0.00205605 0.0473908)
(-0.0418137 0.00288932 0.0875791)
(-0.0847113 0.00249842 0.0930427)
(-0.122905 0.00154787 0.078149)
(-0.153833 0.000330883 0.0471044)
(-0.173622 -0.000890947 -0.00121504)
(-0.175903 -0.00166181 -0.0656791)
(-0.1519 -0.00146596 -0.133228)
(-0.0968218 -0.000464422 -0.164556)
(-0.027794 0.00014565 -0.0961079)
(-0.00956488 0.00581167 0.0474906)
(-0.0399901 0.00803562 0.0872958)
(-0.0808469 0.00696884 0.0928305)
(-0.117491 0.00441995 0.0786204)
(-0.147602 0.00116774 0.048847)
(-0.167464 -0.00209863 0.00229727)
(-0.170699 -0.00422896 -0.0601807)
(-0.148231 -0.00374686 -0.126138)
(-0.0947445 -0.00106944 -0.15759)
(-0.0272848 0.000436611 -0.0928187)
(-0.00849855 0.00817613 0.0468205)
(-0.0351368 0.0109087 0.0849003)
(-0.0708874 0.00950827 0.0905427)
(-0.10351 0.00630551 0.07829)
(-0.131255 0.0022649 0.0521512)
(-0.150921 -0.001772 0.0106909)
(-0.156223 -0.00445674 -0.0460858)
(-0.137659 -0.00389404 -0.107415)
(-0.088799 -0.000654529 -0.138986)
(-0.0258331 0.00063453 -0.0839634)
(-0.00620768 0.00735559 0.0424616)
(-0.0254862 0.0092248 0.0745651)
(-0.0514864 0.0080867 0.0797399)
(-0.0759353 0.00571986 0.0713232)
(-0.0980435 0.00284977 0.0526749)
(-0.115609 0.00012335 0.0221238)
(-0.123143 -0.00153411 -0.0215281)
(-0.111512 -0.000881632 -0.0712094)
(-0.0732958 0.00109863 -0.100928)
(-0.0218143 0.00043697 -0.0651347)
(-0.00236856 0.00295198 0.025982)
(-0.00998427 0.00349408 0.0417478)
(-0.0204452 0.00306854 0.0443325)
(-0.0307213 0.00227877 0.0415083)
(-0.0410937 0.00138705 0.0348062)
(-0.0508928 0.000653158 0.0228461)
(-0.057187 0.000383897 0.00386239)
(-0.0543306 0.000864921 -0.0204192)
(-0.0366956 0.00128536 -0.0391993)
(-0.011305 9.3812e-05 -0.030479)
(-0.00393839 -0.00367517 0.0388341)
(-0.0132222 -0.00407314 0.0586315)
(-0.0235724 -0.00296234 0.0601594)
(-0.0333944 -0.0010863 0.0554514)
(-0.0446829 0.00123911 0.0465967)
(-0.0582661 0.00361482 0.0310892)
(-0.0714029 0.0051206 0.00496794)
(-0.0757232 0.00437496 -0.0320729)
(-0.0600945 0.00166075 -0.0663431)
(-0.0219477 -0.000422934 -0.0607301)
(-0.00887709 -0.00893965 0.062592)
(-0.0316764 -0.010513 0.104258)
(-0.0589492 -0.00759736 0.10888)
(-0.0834556 -0.00229501 0.0971213)
(-0.106798 0.00445897 0.0735003)
(-0.12885 0.0114258 0.0344558)
(-0.144584 0.0159609 -0.0246855)
(-0.141865 0.0141909 -0.0995516)
(-0.107486 0.00612067 -0.157806)
(-0.0375592 -0.00102702 -0.122899)
(-0.0115045 -0.00970289 0.0690557)
(-0.0424983 -0.0121809 0.118944)
(-0.0803305 -0.0086916 0.124599)
(-0.113051 -0.00196824 0.108712)
(-0.141248 0.00663066 0.076683)
(-0.163864 0.0152792 0.0250676)
(-0.175663 0.020525 -0.0499486)
(-0.165306 0.01793 -0.140809)
(-0.122474 0.00789028 -0.206467)
(-0.0422825 -0.000762693 -0.152776)
(-0.0126276 -0.00678798 0.0703825)
(-0.0476534 -0.00884797 0.122789)
(-0.0907947 -0.00625839 0.128679)
(-0.127252 -0.00113454 0.110958)
(-0.156966 0.00539176 0.0753135)
(-0.178476 0.011802 0.0185152)
(-0.187027 0.0153973 -0.062731)
(-0.172679 0.0131101 -0.15962)
(-0.127269 0.00570119 -0.227748)
(-0.0440523 -0.000353449 -0.165691)
(-0.0129683 -0.00238109 0.0704899)
(-0.0494701 -0.00315785 0.123532)
(-0.0946304 -0.00222385 0.129521)
(-0.132418 -0.000356634 0.111259)
(-0.162515 0.00201075 0.074494)
(-0.183371 0.00430349 0.0160552)
(-0.190582 0.00552441 -0.0672188)
(-0.174933 0.00463227 -0.166222)
(-0.129022 0.00200034 -0.235333)
(-0.0448097 -8.34511e-05 -0.170367)
(-0.0129683 0.0023811 0.0704899)
(-0.0494701 0.00315785 0.123532)
(-0.0946304 0.00222384 0.129521)
(-0.132418 0.000356623 0.111259)
(-0.162515 -0.00201076 0.074494)
(-0.183371 -0.00430349 0.0160552)
(-0.190582 -0.00552441 -0.0672188)
(-0.174933 -0.00463227 -0.166222)
(-0.129022 -0.00200034 -0.235333)
(-0.0448097 8.34563e-05 -0.170367)
(-0.0126276 0.00678799 0.0703825)
(-0.0476534 0.00884797 0.122789)
(-0.0907947 0.00625838 0.128679)
(-0.127252 0.00113453 0.110958)
(-0.156966 -0.00539177 0.0753135)
(-0.178476 -0.011802 0.0185152)
(-0.187027 -0.0153973 -0.0627309)
(-0.172679 -0.01311 -0.15962)
(-0.127269 -0.00570118 -0.227748)
(-0.0440523 0.000353453 -0.165691)
(-0.0115045 0.0097029 0.0690557)
(-0.0424983 0.0121809 0.118944)
(-0.0803305 0.0086916 0.124599)
(-0.113051 0.00196824 0.108712)
(-0.141248 -0.00663066 0.076683)
(-0.163864 -0.0152792 0.0250676)
(-0.175663 -0.020525 -0.0499486)
(-0.165306 -0.01793 -0.140809)
(-0.122474 -0.00789028 -0.206467)
(-0.0422825 0.000762695 -0.152776)
(-0.00887709 0.00893966 0.0625919)
(-0.0316764 0.010513 0.104258)
(-0.0589492 0.00759736 0.10888)
(-0.0834556 0.00229501 0.0971213)
(-0.106798 -0.00445897 0.0735003)
(-0.12885 -0.0114258 0.0344558)
(-0.144584 -0.0159609 -0.0246854)
(-0.141865 -0.0141909 -0.0995516)
(-0.107486 -0.00612066 -0.157806)
(-0.0375592 0.00102702 -0.122899)
(-0.00393839 0.00367517 0.0388341)
(-0.0132222 0.00407313 0.0586315)
(-0.0235724 0.00296234 0.0601594)
(-0.0333944 0.0010863 0.0554514)
(-0.0446829 -0.00123911 0.0465967)
(-0.0582661 -0.00361482 0.0310892)
(-0.0714029 -0.0051206 0.00496795)
(-0.0757232 -0.00437496 -0.0320728)
(-0.0600945 -0.00166075 -0.0663431)
(-0.0219477 0.000422934 -0.0607301)
(-0.00778933 -0.00463586 0.0570489)
(-0.0194842 -0.0046616 0.0765305)
(-0.0263173 -0.00236924 0.0735696)
(-0.0316848 0.00118928 0.0648183)
(-0.0401853 0.00560923 0.0529819)
(-0.0551391 0.0103925 0.0343335)
(-0.0755965 0.0139218 0.00230865)
(-0.0913005 0.0131025 -0.048414)
(-0.0859381 0.00686287 -0.103664)
(-0.0354673 -0.00114216 -0.112595)
(-0.0143662 -0.0108211 0.0892183)
(-0.0406463 -0.0115795 0.135599)
(-0.0630645 -0.00584694 0.135374)
(-0.0794474 0.00355086 0.118267)
(-0.0952911 0.0153196 0.090141)
(-0.114248 0.0276051 0.0456819)
(-0.13461 0.0358045 -0.023994)
(-0.143855 0.0324759 -0.122971)
(-0.127578 0.0155781 -0.219884)
(-0.0496353 -0.00353035 -0.211856)
(-0.0171318 -0.0113133 0.0974634)
(-0.0514271 -0.0130865 0.154414)
(-0.0836951 -0.00662963 0.156161)
(-0.106222 0.00448568 0.135614)
(-0.123574 0.018267 0.0997409)
(-0.138939 0.0318292 0.0433094)
(-0.151601 0.0394753 -0.0420863)
(-0.151671 0.033797 -0.159412)
(-0.131814 0.0147358 -0.270961)
(-0.0510513 -0.00318473 -0.252295)
(-0.0181113 -0.00773793 0.09913)
(-0.0560093 -0.00936067 0.159397)
(-0.0929052 -0.00475709 0.162023)
(-0.117883 0.00335942 0.14039)
(-0.134893 0.0133323 0.101784)
(-0.147032 0.0227648 0.0410936)
(-0.154837 0.027388 -0.0498106)
(-0.150858 0.0224803 -0.173871)
(-0.131757 0.00924799 -0.291126)
(-0.05182 -0.00183967 -0.26858)
(-0.018336 -0.00268392 0.0992974)
(-0.0574146 -0.00331598 0.160423)
(-0.0959138 -0.00168926 0.163431)
(-0.121619 0.00120524 0.141637)
(-0.138259 0.00473793 0.102366)
(-0.149011 0.00800947 0.0404863)
(-0.155114 0.00948294 -0.0521723)
(-0.15021 0.00761427 -0.178744)
(-0.132167 0.00305524 -0.29829)
(-0.0524895 -0.000552949 -0.274521)
(-0.018336 0.00268392 0.0992974)
(-0.0574146 0.00331598 0.160423)
(-0.0959138 0.00168925 0.163431)
(-0.121619 -0.00120525 0.141637)
(-0.138259 -0.00473794 0.102366)
(-0.149011 -0.00800947 0.0404863)
(-0.155114 -0.00948294 -0.0521723)
(-0.15021 -0.00761426 -0.178744)
(-0.132167 -0.00305523 -0.29829)
(-0.0524895 0.000552956 -0.274521)
(-0.0181113 0.00773793 0.09913)
(-0.0560093 0.00936067 0.159397)
(-0.0929052 0.00475708 0.162023)
(-0.117883 -0.00335943 0.14039)
(-0.134893 -0.0133323 0.101784)
(-0.147032 -0.0227648 0.0410936)
(-0.154837 -0.027388 -0.0498106)
(-0.150858 -0.0224803 -0.173871)
(-0.131757 -0.00924799 -0.291126)
(-0.05182 0.00183968 -0.26858)
(-0.0171318 0.0113133 0.0974634)
(-0.0514271 0.0130865 0.154414)
(-0.0836951 0.00662963 0.156161)
(-0.106222 -0.00448569 0.135614)
(-0.123574 -0.018267 0.0997409)
(-0.138939 -0.0318292 0.0433094)
(-0.151601 -0.0394753 -0.0420863)
(-0.151671 -0.033797 -0.159412)
(-0.131814 -0.0147358 -0.270961)
(-0.0510513 0.00318474 -0.252295)
(-0.0143662 0.0108211 0.0892183)
(-0.0406463 0.0115795 0.135599)
(-0.0630645 0.00584694 0.135374)
(-0.0794474 -0.00355086 0.118267)
(-0.0952911 -0.0153196 0.090141)
(-0.114248 -0.0276051 0.0456819)
(-0.13461 -0.0358045 -0.023994)
(-0.143855 -0.0324759 -0.122971)
(-0.127578 -0.0155781 -0.219884)
(-0.0496353 0.00353035 -0.211856)
(-0.00778933 0.00463587 0.0570489)
(-0.0194842 0.0046616 0.0765305)
(-0.0263173 0.00236924 0.0735696)
(-0.0316848 -0.00118928 0.0648183)
(-0.0401853 -0.00560923 0.0529819)
(-0.0551391 -0.0103925 0.0343335)
(-0.0755965 -0.0139218 0.00230866)
(-0.0913005 -0.0131025 -0.048414)
(-0.0859381 -0.00686287 -0.103664)
(-0.0354673 0.00114216 -0.112595)
(-0.0170508 -0.00644049 0.0815909)
(-0.0312905 -0.00621076 0.0912353)
(-0.0242572 -0.00265268 0.0792271)
(-0.0167245 0.00266853 0.0636649)
(-0.0150225 0.00899332 0.0482212)
(-0.0246105 0.0160089 0.0279427)
(-0.0486512 0.0218977 -0.00670089)
(-0.077067 0.0214115 -0.0679162)
(-0.0960832 0.0108254 -0.146576)
(-0.0415827 -0.00525825 -0.191416)
(-0.0272443 -0.0141084 0.120711)
(-0.056718 -0.0143933 0.161296)
(-0.0574798 -0.00608366 0.150577)
(-0.0493513 0.00671897 0.124976)
(-0.0423078 0.0220675 0.0934439)
(-0.0432673 0.0382551 0.0498638)
(-0.0576624 0.0503256 -0.018708)
(-0.0759342 0.0467815 -0.129811)
(-0.0987773 0.0207908 -0.265954)
(-0.036751 -0.0123515 -0.319999)
(-0.0303985 -0.013942 0.129347)
(-0.0671305 -0.0155835 0.183235)
(-0.0749462 -0.00690697 0.175816)
(-0.0683205 0.00699254 0.147952)
(-0.0573813 0.0236074 0.110605)
(-0.0488079 0.0399744 0.0577961)
(-0.050426 0.0500923 -0.0229362)
(-0.0565627 0.0431965 -0.151043)
(-0.0817158 0.0162764 -0.307424)
(-0.0291981 -0.0103714 -0.361387)
(-0.0311985 -0.00920915 0.130781)
(-0.0706414 -0.0108439 0.188803)
(-0.0816058 -0.0049537 0.18315)
(-0.0755539 0.00469534 0.155269)
(-0.0624288 0.0161836 0.116485)
(-0.0488059 0.0270573 0.0608158)
(-0.044307 0.0328925 -0.0239603)
(-0.0460381 0.0270123 -0.158376)
(-0.075091 0.00940693 -0.322543)
(-0.0278127 -0.00588258 -0.376862)
(-0.0312725 -0.00313846 0.130825)
(-0.0713883 -0.00379051 0.189842)
(-0.0832605 -0.00175926 0.184896)
(-0.0772561 0.00160061 0.157318)
(-0.0632425 0.00558084 0.118391)
(-0.0478291 0.00927552 0.0620096)
(-0.0415262 0.0111071 -0.0241355)
(-0.0426183 0.00891187 -0.161049)
(-0.0740476 0.00302114 -0.328189)
(-0.0281803 -0.00178766 -0.382603)
(-0.0312725 0.00313846 0.130825)
(-0.0713883 0.0037905 0.189842)
(-0.0832605 0.00175925 0.184896)
(-0.0772561 -0.00160062 0.157318)
(-0.0632425 -0.00558085 0.118391)
(-0.0478291 -0.00927552 0.0620096)
(-0.0415262 -0.0111071 -0.0241355)
(-0.0426183 -0.00891186 -0.161049)
(-0.0740476 -0.00302114 -0.328189)
(-0.0281803 0.00178766 -0.382603)
(-0.0311985 0.00920915 0.130781)
(-0.0706414 0.0108439 0.188803)
(-0.0816058 0.00495368 0.18315)
(-0.0755539 -0.00469535 0.155269)
(-0.0624288 -0.0161836 0.116485)
(-0.0488059 -0.0270573 0.0608158)
(-0.044307 -0.0328925 -0.0239603)
(-0.0460381 -0.0270123 -0.158376)
(-0.075091 -0.00940692 -0.322543)
(-0.0278127 0.00588259 -0.376862)
(-0.0303986 0.013942 0.129347)
(-0.0671305 0.0155835 0.183235)
(-0.0749462 0.00690696 0.175816)
(-0.0683205 -0.00699255 0.147952)
(-0.0573814 -0.0236074 0.110605)
(-0.0488079 -0.0399744 0.0577961)
(-0.050426 -0.0500923 -0.0229362)
(-0.0565627 -0.0431965 -0.151043)
(-0.0817158 -0.0162763 -0.307424)
(-0.0291981 0.0103714 -0.361387)
(-0.0272443 0.0141084 0.120711)
(-0.056718 0.0143933 0.161296)
(-0.0574798 0.00608366 0.150577)
(-0.0493513 -0.00671897 0.124976)
(-0.0423078 -0.0220675 0.0934439)
(-0.0432673 -0.0382551 0.0498638)
(-0.0576624 -0.0503256 -0.018708)
(-0.0759343 -0.0467815 -0.129811)
(-0.0987773 -0.0207908 -0.265954)
(-0.036751 0.0123515 -0.319999)
(-0.0170508 0.00644049 0.0815909)
(-0.0312905 0.00621076 0.0912353)
(-0.0242572 0.00265268 0.0792271)
(-0.0167245 -0.00266853 0.0636649)
(-0.0150225 -0.00899332 0.0482212)
(-0.0246105 -0.0160089 0.0279427)
(-0.0486512 -0.0218977 -0.00670088)
(-0.077067 -0.0214115 -0.0679162)
(-0.0960832 -0.0108254 -0.146576)
(-0.0415827 0.00525825 -0.191416)
(-0.024059 -0.011027 0.151145)
(-0.021974 -0.0110222 0.0986869)
(0.0236672 -0.00655944 0.0632346)
(0.0558652 -0.00032682 0.0422114)
(0.0761598 0.00651033 0.0264779)
(0.0795927 0.0140753 0.00943506)
(0.0592805 0.0214691 -0.0185607)
(0.0236062 0.0213255 -0.0757084)
(-0.0427376 0.00648046 -0.170856)
(-0.0069988 -0.0167812 -0.257555)
(-0.0432707 -0.0220895 0.210389)
(-0.0455168 -0.0237403 0.168064)
(0.0150798 -0.0149185 0.125061)
(0.067867 -0.0018792 0.0933418)
(0.111012 0.0131348 0.0652863)
(0.139406 0.0292489 0.0333491)
(0.139356 0.0442546 -0.0146823)
(0.122626 0.0438599 -0.104688)
(0.035005 0.0129819 -0.253427)
(0.0419774 -0.0296754 -0.367271)
(-0.0486106 -0.0192924 0.220141)
(-0.0553545 -0.0233428 0.186804)
(0.00412862 -0.015725 0.146315)
(0.0611716 -0.00332566 0.11362)
(0.112736 0.0116066 0.0823185)
(0.154435 0.0270269 0.0449562)
(0.168118 0.0396588 -0.00995661)
(0.165693 0.0370232 -0.108923)
(0.0739588 0.00884253 -0.273438)
(0.0608248 -0.0205722 -0.39353)
(-0.0493954 -0.0119209 0.220813)
(-0.0575315 -0.0153531 0.190204)
(0.0007541 -0.0106938 0.151491)
(0.0586307 -0.00269583 0.119529)
(0.112757 0.00705185 0.0878909)
(0.159204 0.016983 0.0489183)
(0.177488 0.0244799 -0.00857335)
(0.179175 0.0221063 -0.110817)
(0.0834775 0.00549271 -0.280647)
(0.0637619 -0.0105076 -0.402583)
(-0.049249 -0.00393702 0.220417)
(-0.0574543 -0.00522437 0.190316)
(0.000611357 -0.00369122 0.152267)
(0.0587804 -0.00100191 0.120808)
(0.113618 0.00228765 0.0893517)
(0.16134 0.00562068 0.0500396)
(0.1806 0.00804156 -0.00840003)
(0.182562 0.00718466 -0.11206)
(0.0844285 0.00188036 -0.283742)
(0.0633707 -0.0030594 -0.405927)