/*--------------------------------*- C++ -*----------------------------------*\
  =========                 |
  \\      /  F ield         | OpenFOAM: The Open Source CFD Toolbox
   \\    /   O peration     | Website:  https://openfoam.org
    \\  /    A nd           | Version:  9
     \\/     M anipulation  |
\*---------------------------------------------------------------------------*/
FoamFile
{
    format      ascii;
    class       volScalarField;
    location    "0.9";
    object      p;
}
// * * * * * * * * * * * * * * * * * * * * * * * * * * * * * * * * * * * * * //

dimensions      [0 2 -2 0 0 0 0];

internalField   nonuniform List<scalar> 
1000
(
4.04032e-07
-0.000493717
-0.000189874
0.000864378
0.00274673
0.00533106
0.00815508
0.0104533
0.0115211
0.010662
0.000171464
-0.0007398
-0.000544571
0.000556374
0.00262296
0.00550916
0.00867717
0.0111943
0.0122036
0.0107922
0.000962041
-0.000228349
-7.23343e-05
0.0011305
0.00344814
0.00670633
0.0102574
0.0129188
0.0136765
0.0115186
0.0018189
0.000441544
0.000583493
0.00188824
0.00443554
0.00803446
0.0118519
0.0145663
0.0150593
0.0123045
0.0023578
0.000891732
0.00103243
0.00239769
0.00507128
0.00884443
0.0128078
0.0155311
0.0158647
0.0127932
0.00235782
0.000891747
0.00103244
0.0023977
0.00507129
0.00884443
0.0128078
0.0155311
0.0158647
0.0127932
0.00181896
0.00044159
0.000583529
0.00188827
0.00443556
0.00803448
0.0118519
0.0145663
0.0150593
0.0123045
0.000962165
-0.000228264
-7.22726e-05
0.00113054
0.00344817
0.00670636
0.0102574
0.0129188
0.0136765
0.0115186
0.000171712
-0.000739661
-0.000544481
0.000556433
0.002623
0.00550919
0.00867719
0.0111943
0.0122036
0.0107922
9.72342e-07
-0.000493501
-0.000189755
0.00086445
0.00274677
0.00533109
0.00815511
0.0104533
0.0115211
0.0106621
0.000415118
-2.1115e-05
0.000301163
0.00122235
0.00285047
0.00513976
0.00772461
0.00993406
0.011023
0.00987614
0.000955801
2.60864e-05
0.00026568
0.00117909
0.00284443
0.00522962
0.00795944
0.0102956
0.0113445
0.00954178
0.00218962
0.000844491
0.00101256
0.00192008
0.00365358
0.00618808
0.00915272
0.0115666
0.0124078
0.00985024
0.003365
0.00169968
0.00180252
0.00270632
0.0045128
0.00721528
0.0103518
0.0127947
0.0134257
0.010315
0.00406617
0.00222943
0.0022952
0.00319673
0.00504465
0.00784846
0.0110716
0.0135158
0.0140218
0.0106369
0.00406618
0.00222945
0.00229521
0.00319674
0.00504466
0.00784847
0.0110716
0.0135158
0.0140218
0.0106369
0.00336505
0.00169972
0.00180255
0.00270635
0.00451282
0.00721529
0.0103518
0.0127947
0.0134257
0.010315
0.00218971
0.00084456
0.00101261
0.00192012
0.0036536
0.0061881
0.00915273
0.0115666
0.0124078
0.00985025
0.000955947
2.61897e-05
0.000265753
0.00117914
0.00284447
0.00522964
0.00795946
0.0102956
0.0113446
0.0095418
0.000415339
-2.09771e-05
0.000301253
0.00122241
0.00285052
0.00513979
0.00772463
0.00993408
0.011023
0.00987612
-0.000936031
-0.00150652
-0.00130999
-0.000599092
0.000845073
0.00315307
0.00610526
0.00901273
0.0107779
0.00946469
-7.09216e-05
-0.00130377
-0.00119297
-0.000484108
0.00100178
0.00343183
0.00658345
0.0096638
0.0113547
0.0088911
0.00168815
-0.000143134
-0.00016679
0.000442316
0.00189938
0.00443224
0.00780121
0.011013
0.0125045
0.00899078
0.00329589
0.00100392
0.000848582
0.00135854
0.00279475
0.00543022
0.00893315
0.0121938
0.0134827
0.00926644
0.00423309
0.00169468
0.00146162
0.00191308
0.0033383
0.00602107
0.00958718
0.0128522
0.0140216
0.00947932
0.0042331
0.00169469
0.00146162
0.00191309
0.0033383
0.00602107
0.00958719
0.0128522
0.0140216
0.00947932
0.00329592
0.00100395
0.000848608
0.00135856
0.00279476
0.00543023
0.00893316
0.0121938
0.0134827
0.00926645
0.00168821
-0.000143082
-0.000166748
0.000442348
0.0018994
0.00443226
0.00780122
0.011013
0.0125045
0.00899078
-7.08285e-05
-0.0013037
-0.00119291
-0.000484066
0.00100181
0.00343186
0.00658347
0.00966381
0.0113547
0.00889111
-0.000935913
-0.00150643
-0.00130992
-0.000599043
0.000845109
0.0031531
0.00610528
0.00901274
0.0107779
0.00946469
-0.00444702
-0.00514542
-0.00512982
-0.00470454
-0.00346466
-0.000971285
0.002838
0.00733756
0.0108088
0.00991114
-0.00325984
-0.00477093
-0.00484328
-0.00440176
-0.00308732
-0.000414082
0.00369946
0.00853235
0.011933
0.00929574
-0.000970708
-0.00326184
-0.00357868
-0.00339575
-0.00227942
0.000403811
0.00467139
0.00976786
0.013103
0.009292
0.00107948
-0.00180956
-0.00236651
-0.00244004
-0.00152202
0.00108615
0.00547291
0.0106961
0.0139301
0.00942421
0.00225944
-0.000947901
-0.00164632
-0.0018692
-0.0010604
0.00150747
0.00591022
0.0111645
0.0143352
0.00953781
0.00225945
-0.000947893
-0.00164631
-0.00186919
-0.0010604
0.00150747
0.00591022
0.0111645
0.0143352
0.00953781
0.00107951
-0.00180954
-0.00236649
-0.00244003
-0.00152201
0.00108615
0.00547292
0.0106961
0.0139301
0.00942422
-0.000970662
-0.0032618
-0.00357864
-0.00339572
-0.0022794
0.000403827
0.00467141
0.00976787
0.013103
0.00929201
-0.00325978
-0.00477088
-0.00484324
-0.00440173
-0.00308729
-0.000414063
0.00369947
0.00853236
0.011933
0.00929575
-0.00444694
-0.00514536
-0.00512977
-0.0047045
-0.00346463
-0.000971265
0.00283801
0.00733757
0.0108088
0.00991114
-0.0107991
-0.0114522
-0.0115374
-0.0114077
-0.0104299
-0.00767066
-0.00250317
0.00476017
0.0115943
0.0127954
-0.00933587
-0.0109245
-0.0111179
-0.0109905
-0.00994657
-0.00706436
-0.00159548
0.00622234
0.0132246
0.0125689
-0.00663582
-0.0091687
-0.00978539
-0.0101896
-0.00968768
-0.00713217
-0.00167588
0.00658361
0.0139105
0.0125718
-0.00426219
-0.00751036
-0.00852633
-0.00942486
-0.00939534
-0.00712394
-0.0017651
0.00671284
0.014231
0.0126206
-0.0029131
-0.00653844
-0.00778388
-0.00895758
-0.00918369
-0.00710383
-0.00179845
0.00674418
0.0143324
0.0126491
-0.00291309
-0.00653843
-0.00778387
-0.00895758
-0.00918369
-0.00710383
-0.00179844
0.00674418
0.0143324
0.0126491
-0.00426217
-0.00751034
-0.00852631
-0.00942485
-0.00939533
-0.00712393
-0.0017651
0.00671285
0.014231
0.0126207
-0.00663579
-0.00916867
-0.00978536
-0.0101896
-0.00968766
-0.00713215
-0.00167587
0.00658363
0.0139105
0.0125718
-0.00933583
-0.0109244
-0.0111179
-0.0109904
-0.00994655
-0.00706435
-0.00159546
0.00622234
0.0132247
0.0125689
-0.0107991
-0.0114522
-0.0115374
-0.0114077
-0.0104298
-0.00767065
-0.00250317
0.00476017
0.0115942
0.0127954
-0.0206075
-0.0206752
-0.0204889
-0.0204956
-0.0197578
-0.016757
-0.00984541
0.00150249
0.0143509
0.0210153
-0.0189026
-0.0200488
-0.0200546
-0.0201923
-0.019652
-0.0169288
-0.0101993
0.00167188
0.0151731
0.0213682
-0.0159329
-0.0181674
-0.0188498
-0.0199271
-0.0204515
-0.0186852
-0.0124574
-6.34892e-05
0.0145281
0.021379
-0.013387
-0.0164186
-0.0176939
-0.0195651
-0.0209298
-0.0198909
-0.01403
-0.00138582
0.0138531
0.0212911
-0.0119635
-0.0154076
-0.0170106
-0.0192987
-0.0210782
-0.0203539
-0.0147291
-0.00202542
0.0134795
0.021213
-0.0119635
-0.0154076
-0.0170106
-0.0192987
-0.0210782
-0.0203539
-0.0147291
-0.00202542
0.0134795
0.021213
-0.0133869
-0.0164186
-0.0176939
-0.0195651
-0.0209297
-0.0198909
-0.01403
-0.00138582
0.0138531
0.0212911
-0.0159329
-0.0181674
-0.0188497
-0.0199271
-0.0204515
-0.0186852
-0.0124574
-6.3482e-05
0.0145281
0.021379
-0.0189025
-0.0200487
-0.0200546
-0.0201923
-0.019652
-0.0169287
-0.0101993
0.00167189
0.0151731
0.0213682
-0.0206074
-0.0206752
-0.0204888
-0.0204956
-0.0197578
-0.016757
-0.0098454
0.00150249
0.0143509
0.0210153
-0.0349397
-0.0326825
-0.0312273
-0.0308227
-0.0301762
-0.0270273
-0.0184658
-0.0018392
0.0201158
0.0388518
-0.0327944
-0.0319081
-0.0308812
-0.0309791
-0.0310938
-0.0290965
-0.0217958
-0.00535715
0.0177674
0.0389599
-0.0295365
-0.0298346
-0.0297839
-0.031315
-0.0331662
-0.0329854
-0.0270148
-0.0102691
0.0146879
0.0387997
-0.0268753
-0.0279852
-0.0287004
-0.0313094
-0.0343676
-0.0353432
-0.0301566
-0.0132329
0.0127674
0.03866
-0.0254281
-0.0269459
-0.0280656
-0.0312026
-0.0348113
-0.0362882
-0.0314491
-0.0144841
0.0119345
0.0385777
-0.0254281
-0.0269459
-0.0280656
-0.0312026
-0.0348113
-0.0362882
-0.0314491
-0.0144841
0.0119345
0.0385777
-0.0268753
-0.0279852
-0.0287004
-0.0313094
-0.0343676
-0.0353432
-0.0301566
-0.0132329
0.0127674
0.03866
-0.0295364
-0.0298346
-0.0297839
-0.031315
-0.0331662
-0.0329854
-0.0270148
-0.0102691
0.0146879
0.0387997
-0.0327944
-0.0319081
-0.0308812
-0.0309791
-0.0310938
-0.0290965
-0.0217958
-0.00535715
0.0177674
0.0389599
-0.0349397
-0.0326824
-0.0312273
-0.0308227
-0.0301762
-0.0270273
-0.0184657
-0.0018392
0.0201158
0.0388518
-0.0575954
-0.0470351
-0.0422542
-0.0401799
-0.0390692
-0.0355596
-0.0256909
-0.00314799
0.0302692
0.0731836
-0.0543286
-0.0455648
-0.0416496
-0.0408597
-0.0413374
-0.0400745
-0.0331507
-0.0121512
0.0224988
0.0736473
-0.0501654
-0.0426369
-0.0399072
-0.0411122
-0.043978
-0.045156
-0.0403186
-0.0192245
0.0177824
0.0750953
-0.0470717
-0.0403015
-0.0383989
-0.040894
-0.0452488
-0.0477996
-0.0440272
-0.0226234
0.0158025
0.0764581
-0.0454848
-0.039079
-0.037596
-0.040681
-0.0456614
-0.0487512
-0.04542
-0.0238645
0.0151715
0.0771182
-0.0454848
-0.039079
-0.0375959
-0.040681
-0.0456614
-0.0487512
-0.04542
-0.0238645
0.0151715
0.0771182
-0.0470717
-0.0403015
-0.0383989
-0.0408939
-0.0452488
-0.0477996
-0.0440272
-0.0226234
0.0158025
0.0764581
-0.0501654
-0.0426369
-0.0399071
-0.0411121
-0.043978
-0.045156
-0.0403186
-0.0192245
0.0177824
0.0750953
-0.0543286
-0.0455648
-0.0416496
-0.0408597
-0.0413374
-0.0400745
-0.0331507
-0.0121512
0.0224988
0.0736473
-0.0575954
-0.0470351
-0.0422541
-0.0401799
-0.0390692
-0.0355596
-0.0256909
-0.00314798
0.0302692
0.0731836
-0.0890979
-0.0612581
-0.0519967
-0.0463797
-0.0436502
-0.0390747
-0.0263873
0.00465078
0.0516392
0.15087
-0.0814263
-0.0572817
-0.0505703
-0.0473791
-0.0470272
-0.0451916
-0.0362259
-0.00613282
0.0452744
0.162521
-0.0750125
-0.0524478
-0.0472983
-0.0466409
-0.0492249
-0.0500439
-0.0431451
-0.0114194
0.0463377
0.171595
-0.0710123
-0.0491443
-0.0448884
-0.0457562
-0.0500395
-0.0523232
-0.0462448
-0.0132253
0.0476516
0.177312
-0.0691641
-0.0475632
-0.0437282
-0.0452694
-0.0502555
-0.0531206
-0.04733
-0.0137905
0.0483748
0.179797
-0.0691641
-0.0475632
-0.0437282
-0.0452694
-0.0502555
-0.0531206
-0.04733
-0.0137905
0.0483748
0.179797
-0.0710123
-0.0491443
-0.0448884
-0.0457562
-0.0500395
-0.0523232
-0.0462448
-0.0132253
0.0476516
0.177312
-0.0750125
-0.0524478
-0.0472983
-0.0466409
-0.0492249
-0.0500439
-0.0431451
-0.0114194
0.0463377
0.171595
-0.0814263
-0.0572817
-0.0505702
-0.0473791
-0.0470272
-0.0451916
-0.0362259
-0.00613281
0.0452744
0.162521
-0.0890979
-0.0612581
-0.0519967
-0.0463797
-0.0436502
-0.0390747
-0.0263873
0.00465078
0.0516392
0.15087
-0.199331
-0.0739116
-0.0489032
-0.0404479
-0.0361632
-0.0294042
-0.0124855
0.0327621
0.119017
0.324656
-0.187019
-0.0611577
-0.0410727
-0.0370497
-0.0364383
-0.0330146
-0.0184908
0.0295945
0.12953
0.359302
-0.178101
-0.052203
-0.0343903
-0.0334612
-0.0360497
-0.0350081
-0.0214661
0.0297176
0.138864
0.380181
-0.172948
-0.047131
-0.0303428
-0.0311387
-0.0355602
-0.0358309
-0.0226118
0.0302106
0.143495
0.390219
-0.170683
-0.0449491
-0.0285884
-0.030111
-0.0353037
-0.0361324
-0.0230455
0.0304273
0.145263
0.394046
-0.170683
-0.0449491
-0.0285884
-0.030111
-0.0353037
-0.0361324
-0.0230455
0.0304273
0.145263
0.394046
-0.172948
-0.047131
-0.0303428
-0.0311387
-0.0355602
-0.0358309
-0.0226118
0.0302106
0.143495
0.390219
-0.178101
-0.052203
-0.0343903
-0.0334612
-0.0360497
-0.0350081
-0.0214661
0.0297176
0.138864
0.380181
-0.187019
-0.0611577
-0.0410727
-0.0370496
-0.0364383
-0.0330146
-0.0184908
0.0295945
0.12953
0.359302
-0.199331
-0.0739116
-0.0489032
-0.0404479
-0.0361632
-0.0294042
-0.0124855
0.0327621
0.119017
0.324656
)
;

boundaryField
{
    top
    {
        type            zeroGradient;
    }
    others
    {
        type            zeroGradient;
    }
}


// ************************************************************************* //
