/*--------------------------------*- C++ -*----------------------------------*\
  =========                 |
  \\      /  F ield         | OpenFOAM: The Open Source CFD Toolbox
   \\    /   O peration     | Website:  https://openfoam.org
    \\  /    A nd           | Version:  9
     \\/     M anipulation  |
\*---------------------------------------------------------------------------*/
FoamFile
{
    format      ascii;
    class       surfaceScalarField;
    location    "0.9";
    object      phi;
}
// * * * * * * * * * * * * * * * * * * * * * * * * * * * * * * * * * * * * * //

dimensions      [0 3 -1 0 0 0 0];

internalField   nonuniform List<scalar> 
2700
(
-5.64768e-08
-1.10505e-07
1.66971e-07
-2.99303e-07
-1.2498e-07
3.67806e-07
-6.24533e-07
-1.25654e-07
4.50884e-07
-9.47015e-07
-1.46883e-07
4.69365e-07
-1.17604e-06
-1.99892e-07
4.28915e-07
-1.211e-06
-2.78904e-07
3.13868e-07
-9.84735e-07
-3.55435e-07
1.29167e-07
-5.41349e-07
-3.78769e-07
-6.46168e-08
-1.02755e-07
-3.02024e-07
-1.36571e-07
-1.00021e-07
-2.73345e-09
-1.56069e-07
-2.41499e-07
2.87062e-07
-6.86428e-07
-3.22623e-07
7.28002e-07
-1.36139e-06
-3.44221e-07
8.93534e-07
-1.9962e-06
-3.84684e-07
8.7261e-07
-2.41509e-06
-4.6817e-07
6.87164e-07
-2.43951e-06
-5.82992e-07
3.28504e-07
-1.96025e-06
-6.80772e-07
-1.53917e-07
-1.08232e-06
-6.86645e-07
-5.70055e-07
-2.33374e-07
-5.42799e-07
-6.08173e-07
-2.19949e-07
-1.13446e-07
-2.36997e-07
-2.64597e-07
2.60095e-07
-9.66931e-07
-3.77701e-07
7.85012e-07
-1.86925e-06
-4.11267e-07
9.69362e-07
-2.69176e-06
-4.52686e-07
8.90511e-07
-3.20384e-06
-5.29058e-07
5.7297e-07
-3.18356e-06
-6.29827e-07
2.6557e-08
-2.50266e-06
-7.0159e-07
-6.60083e-07
-1.32829e-06
-6.87113e-07
-1.17391e-06
-2.48701e-07
-5.41673e-07
-1.08071e-06
-2.3843e-07
-2.3022e-07
-2.93622e-07
-1.68148e-07
1.97173e-07
-1.15741e-06
-2.46923e-07
7.33005e-07
-2.20741e-06
-2.70999e-07
9.09733e-07
-3.14472e-06
-2.96164e-07
7.80789e-07
-3.70333e-06
-3.39381e-07
3.68933e-07
-3.62428e-06
-3.93611e-07
-3.15263e-07
-2.79275e-06
-4.29951e-07
-1.10317e-06
-1.42237e-06
-4.14894e-07
-1.6426e-06
-2.19603e-07
-3.26994e-07
-1.41744e-06
-1.49671e-07
-3.08362e-07
-3.23336e-07
-4.43641e-13
1.55189e-07
-1.25494e-06
-2.19128e-13
6.84683e-07
-2.37823e-06
-2.83328e-13
8.52292e-07
-3.3697e-06
-2.50128e-13
6.95303e-07
-3.94471e-06
-2.21562e-13
2.35631e-07
-3.83083e-06
-1.78616e-13
-5.07494e-07
-2.91714e-06
-1.31136e-13
-1.34364e-06
-1.44952e-06
-9.07909e-14
-1.88251e-06
-1.9486e-07
-7.19738e-14
-1.58165e-06
-7.20941e-14
-3.44531e-07
-3.23336e-07
1.68147e-07
1.55189e-07
-1.25494e-06
2.46923e-07
6.84683e-07
-2.37823e-06
2.70999e-07
8.52292e-07
-3.3697e-06
2.96164e-07
6.95303e-07
-3.94471e-06
3.3938e-07
2.35631e-07
-3.83083e-06
3.93611e-07
-5.07494e-07
-2.91714e-06
4.2995e-07
-1.34364e-06
-1.44952e-06
4.14894e-07
-1.88251e-06
-1.9486e-07
3.26993e-07
-1.58165e-06
1.49671e-07
-3.44531e-07
-2.93622e-07
2.64596e-07
1.97173e-07
-1.15741e-06
3.77701e-07
7.33005e-07
-2.20741e-06
4.11266e-07
9.09733e-07
-3.14472e-06
4.52685e-07
7.80789e-07
-3.70333e-06
5.29058e-07
3.68933e-07
-3.62428e-06
6.29827e-07
-3.15263e-07
-2.79275e-06
7.0159e-07
-1.10317e-06
-1.42237e-06
6.87113e-07
-1.6426e-06
-2.19603e-07
5.41673e-07
-1.41744e-06
2.3843e-07
-3.08362e-07
-2.36997e-07
2.41497e-07
2.60095e-07
-9.66931e-07
3.22623e-07
7.85012e-07
-1.86925e-06
3.44221e-07
9.69362e-07
-2.69176e-06
3.84684e-07
8.90511e-07
-3.20384e-06
4.68169e-07
5.7297e-07
-3.18356e-06
5.82992e-07
2.65571e-08
-2.50266e-06
6.80772e-07
-6.60082e-07
-1.32829e-06
6.86645e-07
-1.17391e-06
-2.48701e-07
5.42799e-07
-1.08071e-06
2.19949e-07
-2.3022e-07
-1.56068e-07
1.10502e-07
2.87063e-07
-6.86427e-07
1.24979e-07
7.28002e-07
-1.36139e-06
1.25653e-07
8.93534e-07
-1.9962e-06
1.46883e-07
8.7261e-07
-2.41509e-06
1.99892e-07
6.87164e-07
-2.43951e-06
2.78904e-07
3.28504e-07
-1.96025e-06
3.55435e-07
-1.53917e-07
-1.08232e-06
3.78769e-07
-5.70055e-07
-2.33374e-07
3.02024e-07
-6.08173e-07
1.00021e-07
-1.13445e-07
-5.64734e-08
1.66975e-07
-2.99301e-07
3.67807e-07
-6.24533e-07
4.50884e-07
-9.47015e-07
4.69365e-07
-1.17604e-06
4.28915e-07
-1.211e-06
3.13868e-07
-9.84735e-07
1.29167e-07
-5.41349e-07
-6.46168e-08
-1.02755e-07
-1.36571e-07
-2.73394e-09
-2.17084e-07
-2.88684e-07
6.72739e-07
-7.17114e-07
-3.88012e-07
1.25585e-06
-1.32354e-06
-4.02888e-07
1.4602e-06
-1.90445e-06
-4.08393e-07
1.45867e-06
-2.31188e-06
-4.37178e-07
1.27352e-06
-2.3816e-06
-4.92347e-07
8.75937e-07
-1.99694e-06
-5.45397e-07
2.89909e-07
-1.20072e-06
-5.3727e-07
-3.23565e-07
-3.31323e-07
-3.99162e-07
-6.0681e-07
-8.73344e-08
-2.46722e-07
-6.01541e-07
-5.30479e-07
1.1304e-06
-1.82807e-06
-7.72379e-07
2.3389e-06
-3.2385e-06
-8.1626e-07
2.71733e-06
-4.4997e-06
-8.25525e-07
2.55094e-06
-5.29459e-06
-8.65436e-07
1.91031e-06
-5.32264e-06
-9.38522e-07
8.0273e-07
-4.40286e-06
-1.00021e-06
-6.18883e-07
-2.67145e-06
-9.56313e-07
-1.88243e-06
-8.2273e-07
-7.22425e-07
-2.13363e-06
-2.37041e-07
-7.86469e-07
-9.02495e-07
-5.42328e-07
1.17444e-06
-2.6634e-06
-8.22896e-07
2.59643e-06
-4.62023e-06
-8.77376e-07
2.98731e-06
-6.29174e-06
-8.84331e-07
2.62083e-06
-7.25707e-06
-9.14029e-07
1.58689e-06
-7.16825e-06
-9.6939e-07
-3.13931e-08
-5.82002e-06
-9.9967e-07
-2.00886e-06
-3.46341e-06
-9.37103e-07
-3.54972e-06
-1.03895e-06
-7.16029e-07
-3.51157e-06
-2.76153e-07
-1.23006e-06
-1.10558e-06
-3.343e-07
1.09473e-06
-3.2257e-06
-5.17319e-07
2.54755e-06
-5.53116e-06
-5.53604e-07
2.89142e-06
-7.43747e-06
-5.56067e-07
2.35884e-06
-8.46652e-06
-5.68818e-07
1.05277e-06
-8.24352e-06
-5.94102e-07
-9.13552e-07
-6.58909e-06
-6.00979e-07
-3.15628e-06
-3.84073e-06
-5.57084e-07
-4.77099e-06
-1.10394e-06
-4.29064e-07
-4.4412e-06
-1.78145e-07
-1.51031e-06
-1.20777e-06
-3.22351e-13
1.02866e-06
-3.50874e-06
-8.86873e-14
2.46833e-06
-5.98394e-06
-1.39751e-13
2.77389e-06
-7.99503e-06
-1.09293e-13
2.15032e-06
-9.03963e-06
-8.67113e-14
7.11413e-07
-8.73207e-06
-6.09774e-14
-1.40916e-06
-6.91896e-06
-3.61622e-14
-3.75773e-06
-3.98454e-06
-2.6339e-14
-5.37402e-06
-1.11478e-06
-3.37171e-14
-4.88047e-06
-4.49891e-14
-1.63746e-06
-1.20777e-06
3.34299e-07
1.02866e-06
-3.50874e-06
5.17319e-07
2.46833e-06
-5.98394e-06
5.53604e-07
2.77389e-06
-7.99503e-06
5.56067e-07
2.15032e-06
-9.03963e-06
5.68818e-07
7.11413e-07
-8.73207e-06
5.94102e-07
-1.40916e-06
-6.91896e-06
6.00979e-07
-3.75773e-06
-3.98454e-06
5.57084e-07
-5.37402e-06
-1.11478e-06
4.29064e-07
-4.88047e-06
1.78145e-07
-1.63746e-06
-1.10558e-06
5.42328e-07
1.09473e-06
-3.2257e-06
8.22895e-07
2.54755e-06
-5.53116e-06
8.77376e-07
2.89142e-06
-7.43747e-06
8.8433e-07
2.35884e-06
-8.46652e-06
9.14029e-07
1.05277e-06
-8.24352e-06
9.69389e-07
-9.13552e-07
-6.58909e-06
9.9967e-07
-3.15628e-06
-3.84073e-06
9.37103e-07
-4.77099e-06
-1.10394e-06
7.16029e-07
-4.4412e-06
2.76153e-07
-1.51031e-06
-9.02494e-07
5.30479e-07
1.17444e-06
-2.6634e-06
7.72378e-07
2.59643e-06
-4.62023e-06
8.1626e-07
2.98731e-06
-6.29174e-06
8.25524e-07
2.62083e-06
-7.25707e-06
8.65436e-07
1.58689e-06
-7.16825e-06
9.38522e-07
-3.13931e-08
-5.82002e-06
1.00021e-06
-2.00886e-06
-3.46341e-06
9.56313e-07
-3.54972e-06
-1.03895e-06
7.22425e-07
-3.51157e-06
2.37041e-07
-1.23006e-06
-6.0154e-07
2.88684e-07
1.1304e-06
-1.82807e-06
3.88012e-07
2.3389e-06
-3.2385e-06
4.02888e-07
2.71733e-06
-4.4997e-06
4.08393e-07
2.55094e-06
-5.29459e-06
4.37178e-07
1.91031e-06
-5.32264e-06
4.92347e-07
8.0273e-07
-4.40286e-06
5.45397e-07
-6.18883e-07
-2.67145e-06
5.3727e-07
-1.88243e-06
-8.2273e-07
3.99162e-07
-2.13363e-06
8.73344e-08
-7.86469e-07
-2.17083e-07
6.72741e-07
-7.17113e-07
1.25585e-06
-1.32354e-06
1.4602e-06
-1.90445e-06
1.45867e-06
-2.31188e-06
1.27352e-06
-2.3816e-06
8.75937e-07
-1.99694e-06
2.89909e-07
-1.20072e-06
-3.23565e-07
-3.31323e-07
-6.0681e-07
-2.46722e-07
-3.29992e-07
-4.3909e-07
1.44182e-06
-9.99855e-07
-5.92026e-07
2.51774e-06
-1.78607e-06
-5.90824e-07
2.83724e-06
-2.55596e-06
-5.42154e-07
2.77071e-06
-3.15289e-06
-5.04338e-07
2.37479e-06
-3.36955e-06
-5.03092e-07
1.59568e-06
-3.0009e-06
-5.26384e-07
4.47643e-07
-1.9857e-06
-5.23611e-07
-8.15154e-07
-6.74831e-07
-3.9549e-07
-1.52219e-06
-4.04667e-08
-8.81087e-07
-9.59325e-07
-7.68301e-07
2.41893e-06
-2.70967e-06
-1.10795e-06
4.60517e-06
-4.6458e-06
-1.11088e-06
5.17352e-06
-6.37795e-06
-1.00688e-06
4.74782e-06
-7.54783e-06
-9.09335e-07
3.48518e-06
-7.77861e-06
-8.60132e-07
1.39055e-06
-6.74793e-06
-8.45834e-07
-1.3301e-06
-4.43676e-06
-8.06485e-07
-3.91073e-06
-1.59031e-06
-6.24646e-07
-4.75092e-06
-1.55602e-07
-2.26165e-06
-1.46522e-06
-7.62573e-07
2.63393e-06
-4.03762e-06
-1.13856e-06
5.19944e-06
-6.76957e-06
-1.1424e-06
5.75077e-06
-9.07087e-06
-1.02242e-06
4.93766e-06
-1.04672e-05
-8.98375e-07
2.97229e-06
-1.05354e-05
-8.11853e-07
-1.14605e-08
-8.94749e-06
-7.54098e-07
-3.68854e-06
-5.77654e-06
-6.98741e-07
-6.82842e-06
-2.03468e-06
-5.56988e-07
-7.32108e-06
-1.90792e-07
-3.22955e-06
-1.80951e-06
-4.62116e-07
2.60378e-06
-4.93327e-06
-7.01545e-07
5.23429e-06
-8.16141e-06
-7.03065e-07
5.68022e-06
-1.07644e-05
-6.22854e-07
4.56224e-06
-1.22137e-05
-5.3569e-07
2.13942e-06
-1.20836e-05
-4.66509e-07
-1.38899e-06
-1.01013e-05
-4.17724e-07
-5.47497e-06
-6.41876e-06
-3.81351e-07
-8.77092e-06
-2.2093e-06
-3.11744e-07
-8.89591e-06
-1.23632e-07
-3.78677e-06
-1.98219e-06
-3.52864e-13
2.54873e-06
-5.38046e-06
-1.1925e-13
5.16505e-06
-8.84342e-06
-1.44602e-13
5.53379e-06
-1.15702e-05
-1.0916e-13
4.25429e-06
-1.30119e-05
-9.53799e-14
1.61738e-06
-1.27592e-05
-8.50058e-14
-2.12836e-06
-1.05773e-05
-6.17752e-14
-6.35734e-06
-6.66488e-06
-4.41615e-14
-9.6678e-06
-2.26428e-06
-3.37022e-14
-9.59282e-06
-3.74087e-14
-4.02537e-06
-1.98219e-06
4.62115e-07
2.54873e-06
-5.38046e-06
7.01545e-07
5.16505e-06
-8.84342e-06
7.03065e-07
5.53379e-06
-1.15702e-05
6.22854e-07
4.25429e-06
-1.30119e-05
5.3569e-07
1.61738e-06
-1.27592e-05
4.66509e-07
-2.12836e-06
-1.05773e-05
4.17724e-07
-6.35734e-06
-6.66488e-06
3.81351e-07
-9.6678e-06
-2.26428e-06
3.11744e-07
-9.59282e-06
1.23632e-07
-4.02537e-06
-1.80951e-06
7.62572e-07
2.60378e-06
-4.93327e-06
1.13856e-06
5.23429e-06
-8.16141e-06
1.1424e-06
5.68022e-06
-1.07644e-05
1.02242e-06
4.56224e-06
-1.22137e-05
8.98375e-07
2.13942e-06
-1.20836e-05
8.11853e-07
-1.38899e-06
-1.01013e-05
7.54098e-07
-5.47497e-06
-6.41876e-06
6.98741e-07
-8.77092e-06
-2.2093e-06
5.56988e-07
-8.89591e-06
1.90792e-07
-3.78677e-06
-1.46522e-06
7.68301e-07
2.63393e-06
-4.03762e-06
1.10795e-06
5.19944e-06
-6.76957e-06
1.11088e-06
5.75077e-06
-9.07087e-06
1.00688e-06
4.93766e-06
-1.04672e-05
9.09335e-07
2.97229e-06
-1.05354e-05
8.60132e-07
-1.14605e-08
-8.94749e-06
8.45834e-07
-3.68854e-06
-5.77654e-06
8.06485e-07
-6.82842e-06
-2.03468e-06
6.24646e-07
-7.32108e-06
1.55601e-07
-3.22955e-06
-9.59325e-07
4.39089e-07
2.41893e-06
-2.70967e-06
5.92026e-07
4.60517e-06
-4.6458e-06
5.90824e-07
5.17352e-06
-6.37795e-06
5.42154e-07
4.74782e-06
-7.54783e-06
5.04338e-07
3.48518e-06
-7.77861e-06
5.03092e-07
1.39055e-06
-6.74793e-06
5.26384e-07
-1.3301e-06
-4.43676e-06
5.23611e-07
-3.91073e-06
-1.59031e-06
3.9549e-07
-4.75092e-06
4.04667e-08
-2.26165e-06
-3.29992e-07
1.44182e-06
-9.99855e-07
2.51774e-06
-1.78607e-06
2.83724e-06
-2.55596e-06
2.77071e-06
-3.15289e-06
2.37479e-06
-3.36955e-06
1.59568e-06
-3.0009e-06
4.47643e-07
-1.9857e-06
-8.15154e-07
-6.74831e-07
-1.52219e-06
-8.81086e-07
-4.11253e-07
-5.68462e-07
2.42154e-06
-1.19243e-06
-7.4277e-07
4.04168e-06
-2.10329e-06
-6.84031e-07
4.43212e-06
-3.05236e-06
-5.29874e-07
4.24966e-06
-3.91327e-06
-3.71992e-07
3.60769e-06
-4.44524e-06
-2.7116e-07
2.39882e-06
-4.3038e-06
-2.52024e-07
5.58226e-07
-3.18994e-06
-3.05877e-07
-1.62314e-06
-1.31339e-06
-2.94505e-07
-3.10423e-06
1.29274e-09
-2.19577e-06
-1.23484e-06
-9.68827e-07
4.05413e-06
-3.37246e-06
-1.34499e-06
7.34501e-06
-5.70302e-06
-1.22632e-06
8.04638e-06
-7.86196e-06
-9.04883e-07
7.28176e-06
-9.52254e-06
-5.56259e-07
5.33003e-06
-1.02511e-05
-2.95387e-07
2.14335e-06
-9.50403e-06
-1.82562e-07
-2.14664e-06
-6.86856e-06
-2.40907e-07
-6.61118e-06
-2.85238e-06
-3.0077e-07
-8.76083e-06
-4.72525e-08
-5.06548e-06
-1.9032e-06
-9.43598e-07
4.5119e-06
-5.0859e-06
-1.34922e-06
8.38637e-06
-8.39231e-06
-1.21612e-06
9.04697e-06
-1.12262e-05
-8.57135e-07
7.72379e-06
-1.31584e-05
-4.57703e-07
4.80594e-06
-1.37073e-05
-1.356e-07
3.77634e-07
-1.23668e-05
1.54594e-08
-5.22706e-06
-8.75452e-06
-4.08462e-08
-1.06407e-05
-3.58251e-06
-1.64565e-07
-1.26293e-05
-6.44266e-08
-6.79488e-06
-2.35592e-06
-5.64848e-07
4.58095e-06
-6.22875e-06
-8.18637e-07
8.57653e-06
-1.01171e-05
-7.30824e-07
9.08332e-06
-1.32641e-05
-4.97599e-07
7.34971e-06
-1.52037e-05
-2.36211e-07
3.85751e-06
-1.55135e-05
-2.14443e-08
-1.19336e-06
-1.37412e-05
7.787e-08
-7.30972e-06
-9.59486e-06
3.97017e-08
-1.29978e-05
-3.8775e-06
-5.71263e-08
-1.47207e-05
-4.0755e-08
-7.68794e-06
-2.5804e-06
-3.21361e-13
4.56428e-06
-6.78984e-06
-1.19865e-13
8.55586e-06
-1.09409e-05
-1.17123e-13
8.95403e-06
-1.41966e-05
-8.19972e-14
7.01241e-06
-1.60886e-05
-7.59522e-14
3.27312e-06
-1.62415e-05
-7.43935e-14
-1.99685e-06
-1.42631e-05
-6.32088e-14
-8.25786e-06
-9.89942e-06
-4.95376e-14
-1.39918e-05
-3.9787e-06
-3.29818e-14
-1.55707e-05
-3.42215e-14
-8.04483e-06
-2.5804e-06
5.64847e-07
4.56428e-06
-6.78984e-06
8.18636e-07
8.55586e-06
-1.09409e-05
7.30824e-07
8.95403e-06
-1.41966e-05
4.97599e-07
7.01241e-06
-1.60886e-05
2.36211e-07
3.27312e-06
-1.62415e-05
2.14442e-08
-1.99685e-06
-1.42631e-05
-7.78701e-08
-8.25786e-06
-9.89942e-06
-3.97018e-08
-1.39918e-05
-3.9787e-06
5.71263e-08
-1.55707e-05
4.07549e-08
-8.04483e-06
-2.35592e-06
9.43597e-07
4.58095e-06
-6.22875e-06
1.34922e-06
8.57653e-06
-1.01171e-05
1.21612e-06
9.08332e-06
-1.32641e-05
8.57135e-07
7.34971e-06
-1.52037e-05
4.57703e-07
3.85751e-06
-1.55135e-05
1.356e-07
-1.19336e-06
-1.37412e-05
-1.54594e-08
-7.30972e-06
-9.59486e-06
4.08461e-08
-1.29978e-05
-3.8775e-06
1.64565e-07
-1.47207e-05
6.44265e-08
-7.68794e-06
-1.9032e-06
9.68827e-07
4.5119e-06
-5.0859e-06
1.34499e-06
8.38637e-06
-8.39231e-06
1.22632e-06
9.04698e-06
-1.12262e-05
9.04882e-07
7.72379e-06
-1.31584e-05
5.56259e-07
4.80594e-06
-1.37073e-05
2.95387e-07
3.77634e-07
-1.23668e-05
1.82562e-07
-5.22706e-06
-8.75452e-06
2.40907e-07
-1.06407e-05
-3.58251e-06
3.0077e-07
-1.26293e-05
4.72525e-08
-6.79488e-06
-1.23484e-06
5.68462e-07
4.05414e-06
-3.37246e-06
7.4277e-07
7.34501e-06
-5.70302e-06
6.8403e-07
8.04638e-06
-7.86196e-06
5.29874e-07
7.28176e-06
-9.52254e-06
3.71991e-07
5.33003e-06
-1.02511e-05
2.7116e-07
2.14335e-06
-9.50403e-06
2.52024e-07
-2.14664e-06
-6.86856e-06
3.05877e-07
-6.61118e-06
-2.85238e-06
2.94505e-07
-8.76083e-06
-1.29275e-09
-5.06548e-06
-4.11253e-07
2.42154e-06
-1.19243e-06
4.04168e-06
-2.10329e-06
4.43212e-06
-3.05236e-06
4.24966e-06
-3.91327e-06
3.60769e-06
-4.44524e-06
2.39882e-06
-4.3038e-06
5.58226e-07
-3.18994e-06
-1.62314e-06
-1.31339e-06
-3.10423e-06
-2.19577e-06
-5.00022e-07
-6.65594e-07
3.58715e-06
-1.33391e-06
-8.24529e-07
5.7001e-06
-2.28765e-06
-6.57113e-07
6.04298e-06
-3.36956e-06
-3.31259e-07
5.66283e-06
-4.54468e-06
3.81033e-08
4.7447e-06
-5.57493e-06
3.1847e-07
3.1106e-06
-5.94767e-06
4.15931e-07
5.15037e-07
-4.97872e-06
2.56058e-07
-2.84815e-06
-2.46695e-06
7.8039e-09
-5.62381e-06
1.10484e-08
-4.67376e-06
-1.4644e-06
-1.11024e-06
5.96318e-06
-3.83009e-06
-1.45675e-06
1.03429e-05
-6.36325e-06
-1.12675e-06
1.10492e-05
-8.82619e-06
-4.70121e-07
9.88355e-06
-1.10096e-05
2.59709e-07
7.29188e-06
-1.24915e-05
8.41398e-07
3.10224e-06
-1.24892e-05
1.0721e-06
-2.80502e-06
-1.00135e-05
8.02092e-07
-9.63297e-06
-4.86108e-06
2.52437e-07
-1.41579e-05
1.44973e-08
-9.93e-06
-2.2272e-06
-1.06356e-06
6.69242e-06
-5.76268e-06
-1.43214e-06
1.18972e-05
-9.35057e-06
-1.07487e-06
1.2583e-05
-1.25032e-05
-3.66968e-07
1.07733e-05
-1.49297e-05
4.11332e-07
7.08082e-06
-1.61979e-05
1.02202e-06
1.4652e-06
-1.56068e-05
1.25216e-06
-5.99823e-06
-1.22033e-05
9.58489e-07
-1.42006e-05
-5.85308e-06
3.65684e-07
-1.90927e-05
2.10769e-08
-1.26545e-05
-2.73146e-06
-6.29552e-07
6.8784e-06
-7.01555e-06
-8.5699e-07
1.22855e-05
-1.119e-05
-6.28406e-07
1.28113e-05
-1.45946e-05
-1.79899e-07
1.05672e-05
-1.6938e-05
3.08048e-07
6.30429e-06
-1.78697e-05
6.86307e-07
7.39729e-08
-1.68606e-05
8.08333e-07
-7.87493e-06
-1.30281e-05
6.12757e-07
-1.64846e-05
-6.22378e-06
2.43638e-07
-2.1403e-05
1.64315e-08
-1.39071e-05
-2.97554e-06
-2.75288e-13
6.91027e-06
-7.61308e-06
-1.16218e-13
1.23364e-05
-1.20334e-05
-8.92001e-14
1.2746e-05
-1.54932e-05
-6.63765e-14
1.02923e-05
-1.77212e-05
-8.20306e-14
5.80918e-06
-1.84588e-05
-9.92213e-14
-5.72943e-07
-1.72614e-05
-9.13634e-14
-8.64697e-06
-1.3291e-05
-5.79352e-14
-1.73494e-05
-6.35181e-06
-1.7531e-14
-2.22662e-05
-1.87508e-14
-1.43802e-05
-2.97554e-06
6.29552e-07
6.91027e-06
-7.61308e-06
8.56989e-07
1.23364e-05
-1.20334e-05
6.28406e-07
1.2746e-05
-1.54932e-05
1.79899e-07
1.02923e-05
-1.77212e-05
-3.08048e-07
5.80918e-06
-1.84588e-05
-6.86307e-07
-5.72943e-07
-1.72614e-05
-8.08333e-07
-8.64697e-06
-1.3291e-05
-6.12757e-07
-1.73494e-05
-6.35181e-06
-2.43638e-07
-2.22662e-05
-1.64315e-08
-1.43802e-05
-2.73146e-06
1.06356e-06
6.8784e-06
-7.01555e-06
1.43214e-06
1.22855e-05
-1.119e-05
1.07487e-06
1.28113e-05
-1.45946e-05
3.66968e-07
1.05672e-05
-1.6938e-05
-4.11332e-07
6.30429e-06
-1.78697e-05
-1.02202e-06
7.3973e-08
-1.68606e-05
-1.25216e-06
-7.87493e-06
-1.30281e-05
-9.58489e-07
-1.64846e-05
-6.22378e-06
-3.65684e-07
-2.1403e-05
-2.10769e-08
-1.39071e-05
-2.2272e-06
1.11024e-06
6.69242e-06
-5.76268e-06
1.45675e-06
1.18972e-05
-9.35057e-06
1.12675e-06
1.2583e-05
-1.25032e-05
4.7012e-07
1.07733e-05
-1.49297e-05
-2.59709e-07
7.08082e-06
-1.61979e-05
-8.41398e-07
1.4652e-06
-1.56068e-05
-1.0721e-06
-5.99823e-06
-1.22033e-05
-8.02092e-07
-1.42006e-05
-5.85308e-06
-2.52437e-07
-1.90927e-05
-1.44973e-08
-1.26545e-05
-1.4644e-06
6.65594e-07
5.96319e-06
-3.83009e-06
8.24529e-07
1.03429e-05
-6.36325e-06
6.57113e-07
1.10492e-05
-8.82619e-06
3.31258e-07
9.88355e-06
-1.10096e-05
-3.81034e-08
7.29188e-06
-1.24915e-05
-3.1847e-07
3.10224e-06
-1.24892e-05
-4.15931e-07
-2.80502e-06
-1.00135e-05
-2.56058e-07
-9.63297e-06
-4.86108e-06
-7.80455e-09
-1.41579e-05
-1.10483e-08
-9.93e-06
-5.00022e-07
3.58715e-06
-1.33391e-06
5.7001e-06
-2.28765e-06
6.04298e-06
-3.36956e-06
5.66283e-06
-4.54468e-06
4.7447e-06
-5.57493e-06
3.1106e-06
-5.94767e-06
5.15037e-07
-4.97872e-06
-2.84815e-06
-2.46695e-06
-5.62381e-06
-4.67376e-06
-6.88341e-07
-7.34256e-07
5.00975e-06
-1.49401e-06
-8.34731e-07
7.3405e-06
-2.32342e-06
-5.03744e-07
7.37613e-06
-3.38179e-06
7.03143e-08
6.65089e-06
-4.79432e-06
7.21156e-07
5.43608e-06
-6.42231e-06
1.28714e-06
3.45146e-06
-7.62917e-06
1.54364e-06
1.78249e-07
-7.25406e-06
1.23667e-06
-4.45993e-06
-4.29297e-06
4.95966e-07
-9.08087e-06
-6.47933e-08
-8.90194e-06
-1.73589e-06
-1.19256e-06
8.15737e-06
-4.10672e-06
-1.44575e-06
1.33248e-05
-6.47364e-06
-8.27874e-07
1.37402e-05
-8.85673e-06
2.53437e-07
1.20835e-05
-1.129e-05
1.45789e-06
8.98847e-06
-1.34821e-05
2.44652e-06
4.13491e-06
-1.45746e-05
2.82644e-06
-2.99534e-06
-1.30139e-05
2.24995e-06
-1.22069e-05
-7.42803e-06
9.50717e-07
-2.01985e-05
-6.06198e-08
-1.73622e-05
-2.49659e-06
-1.12057e-06
9.11702e-06
-6.02363e-06
-1.39569e-06
1.53742e-05
-9.37466e-06
-7.5495e-07
1.58611e-05
-1.2313e-05
3.57546e-07
1.36075e-05
-1.48024e-05
1.56025e-06
9.46784e-06
-1.66086e-05
2.48706e-06
3.23091e-06
-1.70648e-05
2.74936e-06
-5.46497e-06
-1.47799e-05
2.10582e-06
-1.63414e-05
-8.36588e-06
8.68203e-07
-2.54243e-05
-3.25159e-08
-2.10485e-05
-2.97485e-06
-6.54967e-07
9.38764e-06
-7.20597e-06
-8.24401e-07
1.59453e-05
-1.10513e-05
-4.26103e-07
1.63278e-05
-1.40995e-05
2.58227e-07
1.37146e-05
-1.63327e-05
9.78537e-07
9.11925e-06
-1.76842e-05
1.4995e-06
2.41302e-06
-1.7717e-05
1.61038e-06
-6.70315e-06
-1.52026e-05
1.19268e-06
-1.80858e-05
-8.65524e-06
4.76994e-07
-2.75592e-05
-1.08176e-08
-2.2584e-05
-3.19739e-06
-2.16631e-13
9.45269e-06
-7.74592e-06
-1.03173e-13
1.60605e-05
-1.17761e-05
-6.06157e-14
1.635e-05
-1.47967e-05
-5.76979e-14
1.35711e-05
-1.68364e-05
-8.90241e-14
8.82744e-06
-1.79333e-05
-1.02703e-13
2.02346e-06
-1.78152e-05
-6.75164e-14
-7.15476e-06
-1.52872e-05
-7.57316e-15
-1.86847e-05
-8.76013e-06
4.18371e-14
-2.83164e-05
2.32009e-14
-2.31511e-05
-3.19739e-06
6.54966e-07
9.45269e-06
-7.74592e-06
8.24401e-07
1.60605e-05
-1.17761e-05
4.26103e-07
1.635e-05
-1.47967e-05
-2.58227e-07
1.35711e-05
-1.68364e-05
-9.78537e-07
8.82744e-06
-1.79333e-05
-1.4995e-06
2.02346e-06
-1.78152e-05
-1.61038e-06
-7.15476e-06
-1.52872e-05
-1.19268e-06
-1.86847e-05
-8.76013e-06
-4.76994e-07
-2.83164e-05
1.08176e-08
-2.31511e-05
-2.97485e-06
1.12057e-06
9.38764e-06
-7.20597e-06
1.39569e-06
1.59453e-05
-1.10513e-05
7.5495e-07
1.63278e-05
-1.40995e-05
-3.57546e-07
1.37146e-05
-1.63327e-05
-1.56025e-06
9.11925e-06
-1.76842e-05
-2.48706e-06
2.41302e-06
-1.7717e-05
-2.74936e-06
-6.70315e-06
-1.52026e-05
-2.10582e-06
-1.80858e-05
-8.65524e-06
-8.68203e-07
-2.75592e-05
3.25158e-08
-2.2584e-05
-2.49659e-06
1.19256e-06
9.11702e-06
-6.02363e-06
1.44575e-06
1.53742e-05
-9.37466e-06
8.27874e-07
1.58611e-05
-1.2313e-05
-2.53437e-07
1.36075e-05
-1.48024e-05
-1.45789e-06
9.46784e-06
-1.66086e-05
-2.44652e-06
3.23091e-06
-1.70648e-05
-2.82644e-06
-5.46497e-06
-1.47799e-05
-2.24995e-06
-1.63414e-05
-8.36588e-06
-9.50717e-07
-2.54243e-05
6.06198e-08
-2.10485e-05
-1.73589e-06
7.34256e-07
8.15737e-06
-4.10672e-06
8.34731e-07
1.33248e-05
-6.47364e-06
5.03744e-07
1.37402e-05
-8.85673e-06
-7.03145e-08
1.20835e-05
-1.129e-05
-7.21156e-07
8.98847e-06
-1.34821e-05
-1.28714e-06
4.13491e-06
-1.45746e-05
-1.54364e-06
-2.99534e-06
-1.30139e-05
-1.23667e-06
-1.22069e-05
-7.42803e-06
-4.95965e-07
-2.01985e-05
6.47933e-08
-1.73622e-05
-6.88341e-07
5.00975e-06
-1.49401e-06
7.3405e-06
-2.32342e-06
7.37614e-06
-3.38179e-06
6.65089e-06
-4.79432e-06
5.43608e-06
-6.42231e-06
3.45146e-06
-7.62917e-06
1.78249e-07
-7.25406e-06
-4.45993e-06
-4.29297e-06
-9.08087e-06
-8.90194e-06
-1.21854e-06
-8.28933e-07
7.05722e-06
-1.81209e-06
-8.3834e-07
8.77238e-06
-2.16152e-06
-3.06615e-07
8.03219e-06
-2.80407e-06
5.448e-07
6.74863e-06
-4.11975e-06
1.52778e-06
5.22398e-06
-6.17537e-06
2.4571e-06
3.04998e-06
-8.4286e-06
2.98521e-06
-5.53726e-07
-9.23692e-06
2.59054e-06
-6.24214e-06
-6.51123e-06
1.19959e-06
-1.30062e-05
-2.98153e-07
-1.5115e-05
-2.35746e-06
-1.27461e-06
1.09605e-05
-4.33876e-06
-1.40799e-06
1.58757e-05
-5.83935e-06
-4.85519e-07
1.54197e-05
-7.31245e-06
9.99543e-07
1.31019e-05
-9.15623e-06
2.64725e-06
9.71277e-06
-1.1413e-05
4.04343e-06
4.80531e-06
-1.34875e-05
4.62659e-06
-2.5622e-06
-1.3643e-05
3.75875e-06
-1.32196e-05
-9.28557e-06
1.56656e-06
-2.49229e-05
-4.25989e-07
-2.65199e-05
-2.99853e-06
-1.15872e-06
1.19997e-05
-5.97462e-06
-1.32486e-06
1.82672e-05
-8.21964e-06
-4.16745e-07
1.80373e-05
-9.93465e-06
1.02983e-06
1.52922e-05
-1.14574e-05
2.56583e-06
1.1072e-05
-1.29566e-05
3.74435e-06
5.02919e-06
-1.41786e-05
4.05879e-06
-3.67514e-06
-1.38411e-05
3.08355e-06
-1.60037e-05
-9.45807e-06
1.1487e-06
-2.93894e-05
-3.48063e-07
-3.05845e-05
-3.36581e-06
-6.6428e-07
1.2259e-05
-6.90353e-06
-7.69975e-07
1.89281e-05
-9.47571e-06
-2.22952e-07
1.87062e-05
-1.1121e-05
6.39091e-07
1.57507e-05
-1.2206e-05
1.52329e-06
1.12468e-05
-1.30974e-05
2.15252e-06
4.89617e-06
-1.38575e-05
2.24731e-06
-4.1315e-06
-1.34882e-05
1.62688e-06
-1.69984e-05
-9.41052e-06
5.59859e-07
-3.10481e-05
-1.78555e-07
-3.2164e-05
-3.52623e-06
-1.58171e-13
1.23146e-05
-7.30033e-06
-7.2933e-14
1.90647e-05
-9.97225e-06
-2.69147e-14
1.8799e-05
-1.1513e-05
-3.03788e-14
1.5751e-05
-1.23393e-05
-4.82587e-14
1.11771e-05
-1.29538e-05
-4.06175e-14
4.79043e-06
-1.35822e-05
1.60472e-14
-4.279e-06
-1.33102e-05
8.13124e-14
-1.73298e-05
-9.42047e-06
1.09003e-13
-3.16462e-05
5.21888e-14
-3.27502e-05
-3.52623e-06
6.6428e-07
1.23146e-05
-7.30033e-06
7.69975e-07
1.90647e-05
-9.97225e-06
2.22952e-07
1.8799e-05
-1.1513e-05
-6.39091e-07
1.5751e-05
-1.23393e-05
-1.52329e-06
1.11771e-05
-1.29538e-05
-2.15252e-06
4.79043e-06
-1.35822e-05
-2.24731e-06
-4.279e-06
-1.33102e-05
-1.62688e-06
-1.73298e-05
-9.42047e-06
-5.59859e-07
-3.16462e-05
1.78555e-07
-3.27502e-05
-3.36581e-06
1.15872e-06
1.2259e-05
-6.90353e-06
1.32486e-06
1.89281e-05
-9.47571e-06
4.16745e-07
1.87062e-05
-1.1121e-05
-1.02983e-06
1.57507e-05
-1.2206e-05
-2.56583e-06
1.12468e-05
-1.30974e-05
-3.74435e-06
4.89617e-06
-1.38575e-05
-4.05879e-06
-4.1315e-06
-1.34882e-05
-3.08355e-06
-1.69984e-05
-9.41052e-06
-1.1487e-06
-3.10481e-05
3.48063e-07
-3.2164e-05
-2.99853e-06
1.27461e-06
1.19997e-05
-5.97462e-06
1.40799e-06
1.82672e-05
-8.21964e-06
4.85519e-07
1.80373e-05
-9.93465e-06
-9.99543e-07
1.52922e-05
-1.14574e-05
-2.64725e-06
1.1072e-05
-1.29566e-05
-4.04343e-06
5.02919e-06
-1.41786e-05
-4.62659e-06
-3.67514e-06
-1.38411e-05
-3.75875e-06
-1.60037e-05
-9.45807e-06
-1.56656e-06
-2.93894e-05
4.25989e-07
-3.05845e-05
-2.35746e-06
8.28933e-07
1.09605e-05
-4.33876e-06
8.3834e-07
1.58757e-05
-5.83935e-06
3.06615e-07
1.54197e-05
-7.31245e-06
-5.448e-07
1.31019e-05
-9.15623e-06
-1.52778e-06
9.71277e-06
-1.1413e-05
-2.4571e-06
4.80531e-06
-1.34875e-05
-2.98521e-06
-2.5622e-06
-1.3643e-05
-2.59054e-06
-1.32196e-05
-9.28557e-06
-1.19959e-06
-2.49229e-05
2.98153e-07
-2.65199e-05
-1.21854e-06
7.05722e-06
-1.81209e-06
8.77238e-06
-2.16152e-06
8.03219e-06
-2.80407e-06
6.74863e-06
-4.11975e-06
5.22398e-06
-6.17537e-06
3.04998e-06
-8.4286e-06
-5.53726e-07
-9.23692e-06
-6.24214e-06
-6.51123e-06
-1.30062e-05
-1.5115e-05
-2.46526e-06
-1.08129e-06
1.06038e-05
-2.21175e-06
-1.07288e-06
9.59175e-06
-1.25817e-06
-3.82336e-07
7.46095e-06
-7.08131e-07
6.86843e-07
5.51175e-06
-1.2028e-06
1.91759e-06
3.80106e-06
-3.06881e-06
3.1483e-06
1.76768e-06
-6.1436e-06
4.02886e-06
-1.5078e-06
-8.68202e-06
3.68087e-06
-7.38459e-06
-7.67123e-06
1.61627e-06
-1.56332e-05
-1.01811e-06
-2.17681e-05
-3.99872e-06
-1.52824e-06
1.54062e-05
-4.62347e-06
-1.65386e-06
1.70814e-05
-3.81376e-06
-5.75975e-07
1.48037e-05
-2.85429e-06
1.08877e-06
1.17405e-05
-2.59801e-06
2.9434e-06
8.43069e-06
-3.52669e-06
4.59746e-06
4.28483e-06
-5.69914e-06
5.49655e-06
-1.85743e-06
-8.02462e-06
4.5934e-06
-1.18067e-05
-7.43262e-06
1.6136e-06
-2.55122e-05
-1.38857e-06
-3.35821e-05
-4.60366e-06
-1.30612e-06
1.63812e-05
-5.92685e-06
-1.46716e-06
1.94037e-05
-5.44691e-06
-4.69876e-07
1.74513e-05
-4.26825e-06
1.04632e-06
1.4156e-05
-3.20938e-06
2.65094e-06
1.03056e-05
-2.90706e-06
3.94973e-06
5.3746e-06
-3.81062e-06
4.46042e-06
-1.73546e-06
-5.72756e-06
3.4498e-06
-1.29432e-05
-5.98467e-06
1.0123e-06
-2.8531e-05
-1.0261e-06
-3.69317e-05
-4.86549e-06
-7.21547e-07
1.65399e-05
-6.54673e-06
-8.23139e-07
1.99654e-05
-6.20164e-06
-2.42701e-07
1.8134e-05
-4.82349e-06
6.26657e-07
1.47922e-05
-3.25228e-06
1.51312e-06
1.08134e-05
-2.28063e-06
2.18051e-06
5.69373e-06
-2.64038e-06
2.3711e-06
-1.68242e-06
-4.60303e-06
1.74244e-06
-1.33284e-05
-5.4739e-06
4.58385e-07
-2.96233e-05
-4.9196e-07
-3.81721e-05
-4.95904e-06
-1.14979e-13
1.65521e-05
-6.77137e-06
-4.13729e-14
2.00539e-05
-6.44816e-06
-4.62843e-15
1.82331e-05
-4.9453e-06
1.58914e-15
1.48748e-05
-3.13861e-06
1.02325e-14
1.08835e-05
-1.92032e-06
4.93687e-14
5.75266e-06
-2.15058e-06
1.06487e-13
-1.67765e-06
-4.25295e-06
1.44564e-13
-1.3485e-05
-5.39628e-06
1.20959e-13
-3.00445e-05
4.93047e-14
-3.86384e-05
-4.95904e-06
7.21547e-07
1.65521e-05
-6.77137e-06
8.23139e-07
2.00539e-05
-6.44816e-06
2.42701e-07
1.82331e-05
-4.9453e-06
-6.26657e-07
1.48748e-05
-3.13861e-06
-1.51312e-06
1.08835e-05
-1.92032e-06
-2.18051e-06
5.75266e-06
-2.15058e-06
-2.3711e-06
-1.67765e-06
-4.25295e-06
-1.74244e-06
-1.3485e-05
-5.39628e-06
-4.58385e-07
-3.00445e-05
4.9196e-07
-3.86384e-05
-4.86549e-06
1.30612e-06
1.65399e-05
-6.54673e-06
1.46716e-06
1.99654e-05
-6.20164e-06
4.69876e-07
1.8134e-05
-4.82349e-06
-1.04632e-06
1.47922e-05
-3.25228e-06
-2.65094e-06
1.08134e-05
-2.28063e-06
-3.94973e-06
5.69373e-06
-2.64038e-06
-4.46042e-06
-1.68242e-06
-4.60303e-06
-3.4498e-06
-1.33284e-05
-5.4739e-06
-1.0123e-06
-2.96233e-05
1.0261e-06
-3.81721e-05
-4.60366e-06
1.52824e-06
1.63812e-05
-5.92685e-06
1.65386e-06
1.94037e-05
-5.44691e-06
5.75975e-07
1.74513e-05
-4.26825e-06
-1.08877e-06
1.4156e-05
-3.20938e-06
-2.9434e-06
1.03056e-05
-2.90706e-06
-4.59746e-06
5.3746e-06
-3.81062e-06
-5.49655e-06
-1.73546e-06
-5.72756e-06
-4.5934e-06
-1.29432e-05
-5.98467e-06
-1.6136e-06
-2.8531e-05
1.38857e-06
-3.69317e-05
-3.99872e-06
1.08128e-06
1.54062e-05
-4.62347e-06
1.07288e-06
1.70814e-05
-3.81376e-06
3.82336e-07
1.48037e-05
-2.85429e-06
-6.86843e-07
1.17405e-05
-2.59801e-06
-1.91759e-06
8.43069e-06
-3.52669e-06
-3.1483e-06
4.28483e-06
-5.69914e-06
-4.02886e-06
-1.85743e-06
-8.02462e-06
-3.68087e-06
-1.18067e-05
-7.43262e-06
-1.61627e-06
-2.55122e-05
1.01811e-06
-3.35821e-05
-2.46526e-06
1.06038e-05
-2.21175e-06
9.59175e-06
-1.25817e-06
7.46095e-06
-7.08131e-07
5.51175e-06
-1.2028e-06
3.80106e-06
-3.06881e-06
1.76768e-06
-6.1436e-06
-1.5078e-06
-8.68202e-06
-7.38459e-06
-7.67123e-06
-1.56332e-05
-2.17681e-05
-2.66579e-06
-1.85773e-06
1.51273e-05
5.31036e-07
-1.99131e-06
8.38623e-06
4.5753e-06
-1.1984e-06
4.61509e-06
7.43736e-06
-1.41082e-07
2.79077e-06
8.61869e-06
1.10047e-06
1.51926e-06
7.68204e-06
2.38306e-06
3.21272e-07
4.36558e-06
3.54684e-06
-1.73818e-06
-6.12398e-07
3.44343e-06
-5.85004e-06
-3.46879e-06
8.93415e-07
-1.36702e-05
-2.72807e-06
-2.25089e-05
-4.75682e-06
-2.23288e-06
2.05382e-05
-7.41209e-07
-2.67823e-06
1.37527e-05
5.19814e-06
-1.76371e-06
9.42961e-06
1.03499e-05
-2.86995e-07
6.73464e-06
1.40218e-05
1.37946e-06
4.47977e-06
1.55334e-05
3.00833e-06
2.148e-06
1.40809e-05
4.26303e-06
-1.12113e-06
9.34523e-06
3.82458e-06
-7.45216e-06
3.10472e-06
6.78966e-07
-1.90573e-05
-2.7729e-06
-3.04326e-05
-5.51586e-06
-1.71035e-06
2.13745e-05
-1.68949e-06
-2.1691e-06
1.50682e-05
4.41019e-06
-1.4336e-06
1.10215e-05
1.02448e-05
-2.25702e-07
8.26015e-06
1.50552e-05
1.11562e-06
5.75899e-06
1.80483e-05
2.3518e-06
3.03803e-06
1.79796e-05
3.18709e-06
-5.90762e-07
1.37511e-05
2.73376e-06
-7.62387e-06
5.73286e-06
4.18686e-07
-2.02525e-05
-1.73936e-06
-3.22323e-05
-5.70946e-06
-8.88667e-07
2.14277e-05
-2.02029e-06
-1.15278e-06
1.52599e-05
4.08336e-06
-7.4916e-07
1.13459e-05
1.01312e-05
-1.0027e-07
8.61898e-06
1.53576e-05
6.08555e-07
6.09406e-06
1.88795e-05