/*--------------------------------*- C++ -*----------------------------------*\
  =========                 |
  \\      /  F ield         | OpenFOAM: The Open Source CFD Toolbox
   \\    /   O peration     | Website:  https://openfoam.org
    \\  /    A nd           | Version:  9
     \\/     M anipulation  |
\*---------------------------------------------------------------------------*/
FoamFile
{
    format      ascii;
    class       volScalarField;
    location    "0.05";
    object      p;
}
// * * * * * * * * * * * * * * * * * * * * * * * * * * * * * * * * * * * * * //

dimensions      [0 2 -2 0 0 0 0];

internalField   nonuniform List<scalar> 
1000
(
-1.07983e-08
0.000328678
0.00220354
0.0052704
0.00917556
0.0134838
0.0176761
0.0211941
0.0234809
0.0239977
7.12331e-05
0.000245602
0.00211224
0.00521216
0.00917347
0.0135466
0.0178051
0.0213755
0.0236657
0.0240164
0.000154564
0.000273537
0.00212843
0.00522947
0.00919892
0.0135924
0.0178734
0.0214582
0.0237419
0.0240285
0.000219945
0.000310661
0.0021522
0.00524863
0.00922196
0.0136224
0.0179109
0.021499
0.0237764
0.0240363
0.000255626
0.000336417
0.00217129
0.00526361
0.0092358
0.0136371
0.0179271
0.0215151
0.0237891
0.0240399
0.000255456
0.000336274
0.00217118
0.00526353
0.00923575
0.0136371
0.017927
0.0215151
0.0237891
0.0240399
0.000219379
0.000310201
0.00215186
0.00524839
0.00922181
0.0136223
0.0179108
0.0214989
0.0237764
0.0240363
0.000153385
0.000272656
0.00212781
0.00522907
0.00919866
0.0135922
0.0178733
0.0214581
0.0237419
0.0240285
6.91486e-05
0.000244151
0.00211131
0.00521157
0.0091731
0.0135463
0.0178049
0.0213754
0.0236656
0.0240164
-2.8333e-06
0.000326559
0.00220227
0.00526966
0.0091751
0.0134835
0.0176759
0.021194
0.0234808
0.0239977
-0.000362912
-6.70932e-05
0.00185465
0.00498918
0.00898916
0.0134247
0.0177738
0.0214603
0.0238917
0.0244235
-0.000106669
1.16618e-05
0.00189978
0.00502335
0.00902484
0.0134723
0.0178384
0.0215377
0.0239477
0.0242799
5.52555e-05
0.00010014
0.0019629
0.00507035
0.00906413
0.0135121
0.0178822
0.0215813
0.0239759
0.0242327
0.000156056
0.000169072
0.00201331
0.00510765
0.00909439
0.01354
0.0179099
0.0216065
0.0239906
0.0242163
0.000205208
0.00020642
0.00204152
0.00512858
0.00911067
0.013554
0.0179227
0.0216171
0.0239965
0.0242117
0.000205067
0.000206299
0.00204142
0.00512851
0.00911062
0.0135539
0.0179226
0.0216171
0.0239965
0.0242117
0.000155595
0.000168684
0.00201301
0.00510744
0.00909424
0.0135399
0.0179099
0.0216064
0.0239906
0.0242163
5.43726e-05
9.94256e-05
0.00196237
0.00506998
0.00906388
0.0135119
0.0178821
0.0215813
0.0239758
0.0242327
-0.000108129
1.0553e-05
0.00189902
0.00502283
0.00902449
0.013472
0.0178382
0.0215376
0.0239476
0.0242799
-0.000365032
-6.86008e-05
0.00185367
0.00498855
0.00898872
0.0134244
0.0177736
0.0214602
0.0238917
0.0244235
-0.00246474
-0.00213776
8.63041e-05
0.00368939
0.00828638
0.0134211
0.0185305
0.0229617
0.025976
0.0267006
-0.00208937
-0.00198472
0.000190562
0.00376687
0.0083499
0.0134846
0.0186025
0.0230413
0.0260258
0.0264966
-0.00185401
-0.00184465
0.000292163
0.00383917
0.00840307
0.013529
0.0186438
0.0230776
0.0260409
0.0264192
-0.00170948
-0.00174126
0.000368183
0.00389247
0.00844038
0.013557
0.0186669
0.0230951
0.0260455
0.0263867
-0.00164046
-0.0016878
0.000408046
0.00392027
0.00845915
0.0135699
0.0186763
0.0231011
0.0260458
0.0263749
-0.00164057
-0.0016879
0.000407968
0.00392021
0.00845909
0.0135699
0.0186762
0.023101
0.0260458
0.0263749
-0.00170981
-0.00174156
0.000367943
0.00389228
0.00844021
0.0135569
0.0186668
0.023095
0.0260455
0.0263867
-0.00185462
-0.00184516
0.000291754
0.00383886
0.00840282
0.0135288
0.0186436
0.0230775
0.0260408
0.0264192
-0.00209028
-0.00198547
0.000189996
0.00376644
0.00834956
0.0134844
0.0186023
0.0230412
0.0260257
0.0264965
-0.002466
-0.00213871
8.56043e-05
0.00368887
0.00828598
0.0134208
0.0185303
0.0229616
0.025976
0.0267006
-0.00648228
-0.00600968
-0.00319363
0.00128282
0.00696592
0.0133602
0.0198584
0.0256857
0.0298475
0.0310922
-0.00595167
-0.00576755
-0.00302141
0.00141086
0.00706657
0.0134534
0.0199587
0.0257977
0.0299248
0.0308454
-0.00561532
-0.00555868
-0.00287145
0.00151252
0.00713363
0.0135003
0.0199962
0.0258297
0.0299325
0.0307442
-0.00540953
-0.00540924
-0.00276433
0.00158224
0.00717515
0.0135239
0.0200109
0.0258378
0.0299265
0.0306973
-0.0053122
-0.0053336
-0.00270984
0.00161705
0.00719441
0.0135325
0.0200134
0.0258366
0.0299198
0.0306784
-0.00531227
-0.00533366
-0.0027099
0.00161699
0.00719436
0.0135324
0.0200133
0.0258366
0.0299198
0.0306784
-0.00540974
-0.00540943
-0.0027645
0.00158208
0.00717499
0.0135237
0.0200108
0.0258377
0.0299264
0.0306973
-0.00561568
-0.00555899
-0.00287173
0.00151226
0.00713338
0.0135001
0.0199961
0.0258296
0.0299324
0.0307441
-0.00595218
-0.00576797
-0.00302177
0.00141053
0.00706626
0.0134531
0.0199585
0.0257975
0.0299247
0.0308454
-0.00648291
-0.00601021
-0.00319407
0.00128244
0.00696557
0.0133599
0.0198582
0.0256856
0.0298474
0.0310922
-0.013039
-0.0121969
-0.00838688
-0.00254831
0.00477302
0.0130587
0.0216974
0.0298027
0.0360051
0.0384503
-0.0122642
-0.0118181
-0.0081211
-0.00236029
0.00491084
0.0131776
0.0218247
0.0299527
0.0361104
0.038183
-0.0117785
-0.0115123
-0.00791186
-0.00223275
0.00497748
0.0132059
0.0218335
0.0299654
0.0361077
0.0380679
-0.0114857
-0.0113009
-0.00776923
-0.002152
0.00501086
0.0132084
0.0218243
0.0299514
0.0360833
0.0380095
-0.0113491
-0.011196
-0.00769838
-0.00211334
0.00502393
0.0132042
0.0218112
0.0299356
0.0360648
0.0379834
-0.0113491
-0.011196
-0.00769841
-0.00211338
0.00502388
0.0132042
0.0218112
0.0299356
0.0360648
0.0379834
-0.0114858
-0.011301
-0.00776933
-0.00215212
0.00501072
0.0132083
0.0218242
0.0299513
0.0360832
0.0380094
-0.0117787
-0.0115124
-0.00791202
-0.00223295
0.00497726
0.0132057
0.0218334
0.0299653
0.0361076
0.0380679
-0.0122644
-0.0118183
-0.00812132
-0.00236054
0.00491057
0.0131774
0.0218245
0.0299527
0.0361103
0.0381829
-0.0130392
-0.0121971
-0.00838715
-0.00254861
0.00477272
0.0130585
0.0216973
0.0298027
0.0360051
0.0384502
-0.0232443
-0.0215124
-0.0160828
-0.00825715
0.00132618
0.0121898
0.0238624
0.0354738
0.0452218
0.0504066
-0.0220655
-0.0209194
-0.0157063
-0.00803302
0.00145316
0.012269
0.0239363
0.0356036
0.0453283
0.0502124
-0.021355
-0.0204772
-0.0154358
-0.00790688
0.00147162
0.0122196
0.023866
0.035554
0.0452929
0.0501174
-0.0209386
-0.0201839
-0.015259
-0.00783374
0.00146585
0.0121622
0.0237845
0.0354778
0.0452278
0.0500564
-0.0207483
-0.0200411
-0.0151726
-0.00779991
0.0014585
0.0121269
0.0237352
0.0354295
0.045187
0.0500246
-0.0207483
-0.0200412
-0.0151726
-0.00779994
0.00145847
0.0121269
0.0237351
0.0354295
0.0451869
0.0500246
-0.0209387
-0.0201839
-0.015259
-0.00783384
0.00146575
0.0121621
0.0237845
0.0354778
0.0452278
0.0500563
-0.021355
-0.0204773
-0.0154359
-0.00790705
0.00147144
0.0122195
0.0238659
0.035554
0.0452928
0.0501173
-0.0220656
-0.0209195
-0.0157065
-0.00803325
0.00145293
0.0122689
0.0239363
0.0356036
0.0453282
0.0502122
-0.0232444
-0.0215125
-0.016083
-0.00825743
0.00132592
0.0121896
0.0238623
0.0354738
0.0452218
0.0504065
-0.0392252
-0.035193
-0.0270219
-0.0163523
-0.00382545
0.0102478
0.025908
0.0426142
0.0582933
0.0701209
-0.0373529
-0.0342795
-0.0265908
-0.0162405
-0.00390907
0.0100575
0.0256555
0.0424592
0.0582135
0.0701123
-0.0362943
-0.0336467
-0.0262853
-0.0161938
-0.00404529
0.00979433
0.0253528
0.042216
0.0580581
0.0700819
-0.035703
-0.0332457
-0.0260868
-0.0161689
-0.00415088
0.00960113
0.0251164
0.0420009
0.057899
0.0700338
-0.0354404
-0.0330551
-0.025989
-0.0161557
-0.00420369
0.00950388
0.0249957
0.041888
0.0578136
0.0700012
-0.0354404
-0.0330551
-0.025989
-0.0161557
-0.00420371
0.00950388
0.0249957
0.041888
0.0578136
0.0700012
-0.035703
-0.0332458
-0.0260868
-0.0161689
-0.00415094
0.00960111
0.0251164
0.0420009
0.057899
0.0700338
-0.0362943
-0.0336467
-0.0262855
-0.0161939
-0.00404541
0.00979429
0.0253528
0.042216
0.058058
0.0700818
-0.0373529
-0.0342796
-0.026591
-0.0162407
-0.00390922
0.0100575
0.0256555
0.0424592
0.0582134
0.0701121
-0.0392253
-0.0351931
-0.0270221
-0.0163525
-0.00382561
0.0102478
0.0259079
0.0426142
0.0582931
0.0701208
-0.066449
-0.054938
-0.0419016
-0.0271126
-0.0108696
0.00699328
0.026905
0.0500321
0.0743327
0.101986
-0.0638057
-0.0538826
-0.0417967
-0.0275696
-0.0116253
0.00603843
0.025585
0.0486266
0.0727559
0.101771
-0.0623095
-0.0530788
-0.0415594
-0.0277619
-0.012115
0.00527241
0.0247333
0.0478198
0.0720531
0.101719
-0.0614916
-0.0525609
-0.0413692
-0.027845
-0.0123994
0.0048435
0.0242156
0.0473239
0.0716528
0.101685
-0.0611367
-0.0523147
-0.0412653
-0.0278701
-0.0125247
0.00464751
0.0239791
0.0470986
0.0714793
0.101659
-0.0611367
-0.0523147
-0.0412654
-0.0278701
-0.0125247
0.00464752
0.0239791
0.0470986
0.0714793
0.101659
-0.0614916
-0.0525609
-0.0413692
-0.0278451
-0.0123994
0.00484351
0.0242155
0.0473239
0.0716528
0.101685
-0.0623095
-0.0530788
-0.0415595
-0.027762
-0.012115
0.00527242
0.0247333
0.0478198
0.0720531
0.101719
-0.0638057
-0.0538827
-0.0417969
-0.0275698
-0.0116253
0.00603846
0.025585
0.0486266
0.0727558
0.101771
-0.066449
-0.0549381
-0.0419019
-0.0271128
-0.0108696
0.00699331
0.026905
0.050032
0.0743326
0.101986
-0.106427
-0.0795397
-0.0600182
-0.0397214
-0.0193029
0.00167643
0.0258931
0.056687
0.0911699
0.160333
-0.101269
-0.0784089
-0.061067
-0.0414851
-0.0213824
-0.000950277
0.0224638
0.0528768
0.0857306
0.162356
-0.0989087
-0.0774068
-0.0610345
-0.0421014
-0.0223849
-0.00220213
0.020735
0.0511738
0.0838772
0.163202
-0.0977267
-0.0767202
-0.0608911
-0.0423397
-0.0228985
-0.00291735
0.0198028
0.0502777
0.0830735
0.163526
-0.0972384
-0.076391
-0.0607801
-0.0424107
-0.0231076
-0.00322536
0.0194073
0.0499046
0.0827781
0.163606
-0.0972384
-0.076391
-0.0607801
-0.0424107
-0.0231076
-0.00322536
0.0194073
0.0499046
0.0827781
0.163606
-0.0977267
-0.0767202
-0.0608912
-0.0423397
-0.0228985
-0.00291735
0.0198027
0.0502777
0.0830735
0.163526
-0.0989087
-0.0774069
-0.0610346
-0.0421014
-0.0223849
-0.00220213
0.020735
0.0511737
0.0838772
0.163202
-0.101269
-0.078409
-0.0610671
-0.0414852
-0.0213824
-0.00095029
0.0224637
0.0528767
0.0857304
0.162356
-0.106427
-0.0795398
-0.0600184
-0.0397215
-0.0193028
0.00167643
0.0258931
0.0566869
0.0911698
0.160333
-0.227624
-0.103955
-0.0692556
-0.0449118
-0.0219918
0.00176471
0.0305815
0.0752469
0.143272
0.315546
-0.221198
-0.0983271
-0.0683011
-0.0460563
-0.02388
-0.0008601
0.0267908
0.0721272
0.143256
0.32686
-0.217945
-0.0959486
-0.0676999
-0.0464786
-0.0248692
-0.00229233
0.0249544
0.0707534
0.143363
0.330789
-0.216334
-0.0947512
-0.0672822
-0.0466226
-0.0253895
-0.00308241
0.0240052
0.0700129
0.143212
0.332192
-0.215682
-0.0942559
-0.0670792
-0.0466699
-0.0256073
-0.00342361
0.0236053
0.0696912
0.143093
0.332591
-0.215682
-0.0942559
-0.0670792
-0.0466699
-0.0256073
-0.00342362
0.0236053
0.0696912
0.143093
0.332591
-0.216334
-0.0947512
-0.0672822
-0.0466226
-0.0253895
-0.00308242
0.0240052
0.0700129
0.143212
0.332192
-0.217945
-0.0959486
-0.0677
-0.0464787
-0.0248692
-0.00229235
0.0249543
0.0707533
0.143362
0.330789
-0.221198
-0.0983272
-0.0683012
-0.0460563
-0.0238799
-0.000860115
0.0267908
0.0721271
0.143255
0.32686
-0.227624
-0.103956
-0.0692558
-0.0449119
-0.0219917
0.00176474
0.0305814
0.0752468
0.143272
0.315546
)
;

boundaryField
{
    top
    {
        type            zeroGradient;
    }
    others
    {
        type            zeroGradient;
    }
}


// ************************************************************************* //
