/*--------------------------------*- C++ -*----------------------------------*\
  =========                 |
  \\      /  F ield         | OpenFOAM: The Open Source CFD Toolbox
   \\    /   O peration     | Website:  https://openfoam.org
    \\  /    A nd           | Version:  9
     \\/     M anipulation  |
\*---------------------------------------------------------------------------*/
FoamFile
{
    format      ascii;
    class       surfaceScalarField;
    location    "0.05";
    object      phi;
}
// * * * * * * * * * * * * * * * * * * * * * * * * * * * * * * * * * * * * * //

dimensions      [0 3 -1 0 0 0 0];

internalField   nonuniform List<scalar> 
2700
(
-2.47915e-07
-7.41951e-09
2.55335e-07
-5.98365e-07
4.32839e-09
3.46121e-07
-8.99971e-07
6.52809e-09
2.95078e-07
-1.1038e-06
4.08956e-09
1.9974e-07
-1.18729e-06
-6.02158e-10
8.40889e-08
-1.13826e-06
-6.51638e-09
-4.25131e-08
-9.5457e-07
-1.24669e-08
-1.71221e-07
-6.49741e-07
-1.67282e-08
-2.881e-07
-2.74576e-07
-1.56528e-08
-3.59513e-07
-1.45939e-09
-2.73116e-07
-3.52264e-07
-9.60969e-09
3.54454e-07
-8.45037e-07
-1.98668e-09
4.99088e-07
-1.2652e-06
7.04031e-10
4.25988e-07
-1.54628e-06
1.51189e-10
2.85018e-07
-1.65859e-06
-2.67566e-09
1.14385e-07
-1.58732e-06
-6.12718e-09
-7.16615e-08
-1.33031e-06
-9.61214e-09
-2.59864e-07
-9.05869e-07
-1.17717e-08
-4.29396e-07
-3.83278e-07
-1.02048e-08
-5.2804e-07
-1.02704e-09
-3.8371e-07
-3.65389e-07
-7.82539e-09
3.63605e-07
-8.80658e-07
-5.04985e-09
5.18332e-07
-1.32005e-06
-2.95553e-09
4.43053e-07
-1.61351e-06
-2.34127e-09
2.95951e-07
-1.73083e-06
-2.90886e-09
1.17557e-07
-1.65611e-06
-4.053e-09
-7.67971e-08
-1.3871e-06
-5.25164e-09
-2.73371e-07
-9.42838e-07
-5.73468e-09
-4.503e-07
-3.96425e-07
-4.48993e-09
-5.52128e-07
-4.73817e-10
-3.96978e-07
-3.64734e-07
-4.29618e-09
3.61205e-07
-8.83188e-07
-3.50984e-09
5.16914e-07
-1.32588e-06
-2.42489e-09
4.42164e-07
-1.62174e-06
-1.84716e-09
2.95361e-07
-1.74004e-06
-1.77124e-09
1.17167e-07
-1.6649e-06
-1.97157e-09
-7.72203e-08
-1.39392e-06
-2.22259e-09
-2.74014e-07
-9.46226e-07
-2.20158e-09
-4.51226e-07
-3.96166e-07
-1.56989e-09
-5.5298e-07
-1.57288e-10
-3.96483e-07
-3.63811e-07
2.57338e-12
3.59513e-07
-8.82554e-07
-2.38814e-12
5.15235e-07
-1.32588e-06
-8.24353e-13
4.40902e-07
-1.62231e-06
-1.80563e-13
2.94582e-07
-1.74094e-06
-6.8599e-14
1.16865e-07
-1.6658e-06
4.4596e-14
-7.71131e-08
-1.39443e-06
2.8874e-13
-2.73592e-07
-9.46057e-07
4.4709e-13
-4.50579e-07
-3.95458e-07
6.59569e-13
-5.52169e-07
7.95603e-13
-3.95616e-07
-3.63811e-07
4.30137e-09
3.59512e-07
-8.82554e-07
3.50526e-09
5.15235e-07
-1.32588e-06
2.42368e-09
4.40901e-07
-1.62231e-06
1.84701e-09
2.94581e-07
-1.74094e-06
1.77114e-09
1.16865e-07
-1.6658e-06
1.97165e-09
-7.71131e-08
-1.39443e-06
2.22304e-09
-2.73591e-07
-9.46057e-07
2.20227e-09
-4.50579e-07
-3.95458e-07
1.57097e-09
-5.52169e-07
1.58534e-10
-3.95616e-07
-3.64735e-07
7.83279e-09
3.61204e-07
-8.83189e-07
5.0453e-09
5.16914e-07
-1.32588e-06
2.9556e-09
4.42162e-07
-1.62174e-06
2.3418e-09
2.9536e-07
-1.74004e-06
2.90918e-09
1.17166e-07
-1.6649e-06
4.05318e-09
-7.72206e-08
-1.39392e-06
5.25198e-09
-2.74014e-07
-9.46226e-07
5.73511e-09
-4.51225e-07
-3.96166e-07
4.49069e-09
-5.52979e-07
4.74574e-10
-3.96482e-07
-3.65394e-07
9.62575e-09
3.63601e-07
-8.80659e-07
1.97884e-09
5.18332e-07
-1.32005e-06
-7.01901e-10
4.43051e-07
-1.61351e-06
-1.49964e-10
2.9595e-07
-1.73083e-06
2.67678e-09
1.17555e-07
-1.65611e-06
6.12769e-09
-7.67977e-08
-1.3871e-06
9.61254e-09
-2.7337e-07
-9.42838e-07
1.17719e-08
-4.50299e-07
-3.96425e-07
1.02052e-08
-5.52127e-07
1.02736e-09
-3.96978e-07
-3.52257e-07
7.42109e-09
3.54462e-07
-8.45031e-07
-4.34051e-09
4.99093e-07
-1.2652e-06
-6.5228e-09
4.25987e-07
-1.54628e-06
-4.08663e-09
2.85017e-07
-1.65859e-06
6.03718e-10
1.14384e-07
-1.58732e-06
6.51768e-09
-7.16618e-08
-1.33031e-06
1.24677e-08
-2.59864e-07
-9.05869e-07
1.67286e-08
-4.29395e-07
-3.83277e-07
1.56532e-08
-5.28039e-07
1.46003e-09
-3.8371e-07
-2.47915e-07
2.55336e-07
-5.98384e-07
3.46128e-07
-8.99979e-07
2.95073e-07
-1.1038e-06
1.99738e-07
-1.18729e-06
8.40887e-08
-1.13826e-06
-4.25126e-08
-9.54571e-07
-1.7122e-07
-6.49742e-07
-2.881e-07
-2.74577e-07
-3.59513e-07
-2.73116e-07
-3.88995e-07
-2.56434e-08
6.69973e-07
-9.04119e-07
-1.16646e-08
8.72909e-07
-1.34139e-06
-6.04357e-09
7.38396e-07
-1.6351e-06
-4.29745e-09
4.9774e-07
-1.75526e-06
-4.54905e-09
2.08798e-07
-1.68566e-06
-6.1276e-09
-1.05981e-07
-1.42229e-06
-8.13824e-09
-4.26458e-07
-9.8158e-07
-9.01864e-09
-7.19787e-07
-4.305e-07
-4.85245e-09
-9.0574e-07
1.25181e-08
-7.16134e-07
-5.75976e-07
-2.28101e-08
9.27597e-07
-1.32502e-06
-1.50311e-08
1.2515e-06
-1.95519e-06
-9.42171e-09
1.05953e-06
-2.3737e-06
-6.67245e-09
7.05906e-07
-2.54012e-06
-5.85066e-09
2.82101e-07
-2.43409e-06
-6.34038e-09
-1.77474e-07
-2.05173e-06
-7.20043e-09
-6.43162e-07
-1.41693e-06
-7.01011e-09
-1.06621e-06
-6.24076e-07
-3.13894e-09
-1.3226e-06
7.99666e-09
-1.00326e-06
-6.01718e-07
-1.49838e-08
9.57496e-07
-1.38951e-06
-1.22687e-08
1.30336e-06
-2.05198e-06
-8.48766e-09
1.10459e-06
-2.49129e-06
-6.01173e-09
7.34601e-07
-2.66547e-06
-4.78024e-09
2.90672e-07
-2.55343e-06
-4.41922e-09
-1.90763e-07
-2.1511e-06
-4.31959e-09
-6.78578e-07
-1.4835e-06
-3.62092e-09
-1.12129e-06
-6.50595e-07
-1.198e-09
-1.38697e-06
3.57003e-09
-1.04315e-06
-6.01809e-07
-7.38154e-09
9.55411e-07
-1.39453e-06
-6.72781e-09
1.30409e-06
-2.06196e-06
-4.88741e-09
1.106e-06
-2.50479e-06
-3.47207e-09
7.3565e-07
-2.68056e-06
-2.6187e-09
2.90778e-07
-2.56793e-06
-2.18311e-09
-1.92087e-07
-2.16265e-06
-1.90047e-09
-6.81714e-07
-1.48989e-06
-1.39586e-09
-1.12621e-06
-6.51263e-07
-3.0037e-10
-1.3925e-06
1.3352e-09
-1.04551e-06
-6.00517e-07
-2.55749e-12
9.5265e-07
-1.39356e-06
-4.19392e-12
1.30155e-06
-2.06179e-06
-7.55916e-13
1.10425e-06
-2.50537e-06
1.32003e-13
7.3469e-07
-2.68162e-06
1.69272e-14
2.90494e-07
-2.56904e-06
-1.64453e-13
-1.91873e-07
-2.16331e-06
-1.39579e-13
-6.81221e-07
-1.48969e-06
-2.18721e-13
-1.12559e-06
-6.50359e-07
-4.95187e-14
-1.3918e-06
6.65992e-13
-1.04464e-06
-6.00517e-07
7.37586e-09
9.52651e-07
-1.39356e-06
6.71966e-09
1.30155e-06
-2.06179e-06
4.88626e-09
1.10425e-06
-2.50537e-06
3.47252e-09
7.34689e-07
-2.68162e-06
2.61872e-09
2.90494e-07
-2.56904e-06
2.1827e-09
-1.91874e-07
-2.16331e-06
1.90012e-09
-6.81221e-07
-1.48969e-06
1.39538e-09
-1.12559e-06
-6.50359e-07
3.00289e-10
-1.3918e-06
-1.33408e-09
-1.04464e-06
-6.01809e-07
1.49784e-08
9.55411e-07
-1.39453e-06
1.22614e-08
1.30409e-06
-2.06196e-06
8.48774e-09
1.10599e-06
-2.50479e-06
6.01264e-09
7.35648e-07
-2.68056e-06
4.78028e-09
2.90776e-07
-2.56793e-06
4.41856e-09
-1.92087e-07
-2.16265e-06
4.31907e-09
-6.81713e-07
-1.48989e-06
3.62043e-09
-1.12621e-06
-6.51264e-07
1.19805e-09
-1.3925e-06
-3.56926e-09
-1.04551e-06
-6.01719e-07
2.2803e-08
9.57495e-07
-1.38951e-06
1.50247e-08
1.30336e-06
-2.05198e-06
9.42252e-09
1.10458e-06
-2.49129e-06
6.67338e-09
7.34598e-07
-2.66547e-06
5.85061e-09
2.9067e-07
-2.55343e-06
6.33951e-09
-1.90763e-07
-2.1511e-06
7.19967e-09
-6.78576e-07
-1.4835e-06
7.00949e-09
-1.12129e-06
-6.50595e-07
3.13897e-09
-1.38697e-06
-7.99619e-09
-1.04315e-06
-5.75971e-07
2.56325e-08
9.27603e-07
-1.32502e-06
1.16598e-08
1.2515e-06
-1.95519e-06
6.04555e-09
1.05953e-06
-2.3737e-06
4.29874e-09
7.05904e-07
-2.54011e-06
4.54938e-09
2.821e-07
-2.43409e-06
6.12708e-09
-1.77474e-07
-2.05173e-06
8.13776e-09
-6.4316e-07
-1.41692e-06
9.0184e-09
-1.06621e-06
-6.24076e-07
4.85287e-09
-1.3226e-06
-1.25174e-08
-1.00326e-06
-3.88987e-07
6.69956e-07
-9.04114e-07
8.72914e-07
-1.34139e-06
7.38395e-07
-1.63509e-06
4.97739e-07
-1.75525e-06
2.08798e-07
-1.68566e-06
-1.0598e-07
-1.42229e-06
-4.26456e-07
-9.8158e-07
-7.19786e-07
-4.305e-07
-9.0574e-07
-7.16134e-07
-4.83115e-07
-3.90578e-08
1.19215e-06
-1.10924e-06
-2.28985e-08
1.52194e-06
-1.63114e-06
-1.47075e-08
1.275e-06
-1.98014e-06
-1.02685e-08
8.57016e-07
-2.12868e-06
-7.90385e-09
3.65238e-07
-2.05915e-06
-7.24169e-09
-1.68272e-07
-1.76014e-06
-7.46249e-09
-7.18006e-07
-1.23684e-06
-7.00078e-09
-1.23608e-06
-5.55066e-07
-1.05598e-09
-1.58646e-06
1.95775e-08
-1.29078e-06
-7.20014e-07
-3.45935e-08
1.64315e-06
-1.63606e-06
-2.5876e-08
2.17052e-06
-2.39281e-06
-1.76033e-08
1.81917e-06
-2.89267e-06
-1.1992e-08
1.2075e-06
-3.09884e-06
-8.47854e-09
4.8884e-07
-2.98946e-06
-6.65906e-09
-2.87432e-07
-2.55098e-06
-5.74974e-09
-1.08335e-06
-1.79218e-06
-4.25743e-09
-1.82776e-06
-8.06619e-07
9.71291e-10
-2.31019e-06
1.36515e-08
-1.80396e-06
-7.52557e-07
-2.23068e-08
1.69777e-06
-1.71673e-06
-1.94992e-08
2.26115e-06
-2.513e-06
-1.38679e-08
1.89713e-06
-3.03822e-06
-9.33458e-09
1.25716e-06
-3.25415e-06
-6.17498e-09
5.04297e-07
-3.13822e-06
-4.1938e-09
-3.09155e-07
-2.67636e-06
-2.88197e-09
-1.1433e-06
-1.87775e-06
-1.3379e-09
-1.92283e-06
-8.41764e-07
1.87105e-09
-2.42386e-06
6.84281e-09
-1.8781e-06
-7.52432e-07
-1.07637e-08
1.6963e-06
-1.72232e-06
-1.01825e-08
2.26466e-06
-2.5244e-06
-7.4352e-09
1.90164e-06
-3.05383e-06
-4.98293e-09
1.26073e-06
-3.27186e-06
-3.15911e-09
5.05795e-07
-3.15558e-06
-1.91989e-09
-3.10646e-07
-2.69058e-06
-1.05321e-09
-1.14854e-06
-1.886e-06
-1.75758e-10
-1.93195e-06
-8.43002e-07
1.28863e-09
-2.43492e-06
2.80543e-09
-1.88448e-06
-7.50618e-07
-1.23444e-12
1.69251e-06
-1.72066e-06
-1.17108e-12
2.26141e-06
-2.52357e-06
1.26766e-12
1.89972e-06
-3.05388e-06
1.46263e-12
1.26002e-06
-3.27257e-06
7.93045e-13
5.0602e-07
-3.15652e-06
1.73827e-13
-3.09846e-07
-2.69119e-06
-8.68729e-14
-1.1476e-06
-1.88579e-06
-4.33551e-13
-1.93117e-06
-8.41989e-07
-5.43848e-13
-2.43431e-06
2.22014e-13
-1.88382e-06
-7.50618e-07
1.07616e-08
1.69251e-06
-1.72066e-06
1.01805e-08
2.26141e-06
-2.52357e-06
7.43817e-09
1.89972e-06
-3.05389e-06
4.98595e-09
1.26002e-06
-3.27257e-06
3.1605e-09
5.06019e-07
-3.15652e-06
1.91995e-09
-3.09846e-07
-2.69119e-06
1.05288e-09
-1.1476e-06
-1.88579e-06
1.74761e-10
-1.93117e-06
-8.4199e-07
-1.28966e-09
-2.43431e-06
-2.80507e-09
-1.88382e-06
-7.52433e-07
2.23059e-08
1.6963e-06
-1.72232e-06
1.94984e-08
2.26466e-06
-2.5244e-06
1.38714e-08
1.90164e-06
-3.05383e-06
9.33733e-09
1.26073e-06
-3.27186e-06
6.17571e-09
5.05793e-07
-3.15558e-06
4.19309e-09
-3.10646e-07
-2.69058e-06
2.88114e-09
-1.14854e-06
-1.886e-06
1.33682e-09
-1.93195e-06
-8.43002e-07
-1.87194e-09
-2.43492e-06
-6.84265e-09
-1.88448e-06
-7.52559e-07
3.45944e-08
1.69777e-06
-1.71673e-06
2.58762e-08
2.26115e-06
-2.513e-06
1.76064e-08
1.89712e-06
-3.03822e-06
1.19935e-08
1.25716e-06
-3.25415e-06
8.47804e-09
5.04295e-07
-3.13822e-06
6.657e-09
-3.09156e-07
-2.67637e-06
5.748e-09
-1.1433e-06
-1.87775e-06
4.25607e-09
-1.92282e-06
-8.41764e-07
-9.7217e-10
-2.42386e-06
-1.36514e-08
-1.8781e-06
-7.20015e-07
3.90622e-08
1.64315e-06
-1.63606e-06
2.28991e-08
2.17053e-06
-2.39281e-06
1.47094e-08
1.81917e-06
-2.89267e-06
1.0269e-08
1.2075e-06
-3.09884e-06
7.90264e-09
4.88839e-07
-2.98946e-06
7.23918e-09
-2.87432e-07
-2.55098e-06
7.46049e-09
-1.08335e-06
-1.79218e-06
6.99963e-09
-1.82776e-06
-8.06619e-07
1.0557e-09
-2.31019e-06
-1.95774e-08
-1.80396e-06
-4.83119e-07
1.19214e-06
-1.10924e-06
1.52194e-06
-1.63114e-06
1.275e-06
-1.98014e-06
8.57015e-07
-2.12868e-06
3.65237e-07
-2.05915e-06
-1.68272e-07
-1.76014e-06
-7.18006e-07
-1.23684e-06
-1.23608e-06
-5.55066e-07
-1.58646e-06
-1.29078e-06
-6.29848e-07
-5.60279e-08
1.87802e-06
-1.41467e-06
-3.61553e-08
2.34292e-06
-2.04933e-06
-2.43553e-08
1.93401e-06
-2.47031e-06
-1.67483e-08
1.29475e-06
-2.66051e-06
-1.17549e-08
5.67195e-07
-2.60348e-06
-9.16851e-09
-2.16134e-07
-2.27247e-06
-8.25161e-09
-1.04077e-06
-1.64545e-06
-7.28573e-09
-1.85581e-06
-7.70054e-07
2.0091e-10
-2.46206e-06
2.4728e-08
-2.08556e-06
-9.36718e-07
-4.99703e-08
2.57381e-06
-2.08549e-06
-3.94077e-08
3.32255e-06
-3.00678e-06
-2.7107e-08
2.74321e-06
-3.60996e-06
-1.76316e-08
1.81156e-06
-3.87364e-06
-1.08564e-08
7.51626e-07
-3.77824e-06
-6.67151e-09
-3.85331e-07
-3.28958e-06
-4.33076e-09
-1.57593e-06
-2.37851e-06
-2.26806e-09
-2.74385e-06
-1.11368e-06
4.17644e-09
-3.57899e-06
1.8232e-08
-2.91115e-06
-9.7799e-07
-3.21515e-08
2.65794e-06
-2.18657e-06
-2.88175e-08
3.45914e-06
-3.15606e-06
-2.02609e-08
2.85977e-06
-3.79006e-06
-1.27348e-08
1.88626e-06
-4.06642e-06
-7.00105e-09
7.76806e-07
-3.9651e-06
-3.10969e-09
-4.14035e-07
-3.45048e-06
-6.7195e-10
-1.66158e-06
-2.49194e-06
1.55903e-09
-2.8852e-06
-1.16272e-06
5.17451e-09
-3.75407e-06
9.93022e-09
-3.03252e-06
-9.77171e-07
-1.54048e-08
2.65672e-06
-2.19228e-06
-1.47377e-08
3.46569e-06
-3.16867e-06
-1.05205e-08
2.86829e-06
-3.80792e-06
-6.49805e-09
1.89374e-06
-4.08725e-06
-3.30638e-09
7.81438e-07
-3.98622e-06
-1.05914e-09
-4.13726e-07
-3.46865e-06
4.44439e-10
-1.66724e-06
-2.50331e-06
1.71324e-09
-2.89744e-06
-1.16544e-06
3.24683e-09
-3.77087e-06
4.36767e-09
-3.04435e-06
-9.74486e-07
-7.65732e-13
2.65159e-06
-2.18944e-06
-2.70232e-13
3.46163e-06
-3.16672e-06
1.38723e-12
2.86648e-06
-3.8071e-06
1.32312e-12
1.8939e-06
-4.08743e-06
4.752e-13
7.83038e-07
-3.98702e-06
-1.90917e-13
-4.11313e-07
-3.46941e-06
-2.61232e-13
-1.66477e-06
-2.50331e-06
-5.43436e-13
-2.89555e-06
-1.16455e-06
-6.28017e-13
-3.76983e-06
6.86895e-14
-3.04401e-06
-9.74486e-07
1.54035e-08
2.65159e-06
-2.18944e-06
1.47374e-08
3.46163e-06
-3.16672e-06
1.05235e-08
2.86648e-06
-3.80711e-06
6.50067e-09
1.8939e-06
-4.08743e-06
3.30711e-09
7.83038e-07
-3.98702e-06
1.05851e-09
-4.11313e-07
-3.46941e-06
-4.4511e-10
-1.66477e-06
-2.50331e-06
-1.71429e-09
-2.89555e-06
-1.16455e-06
-3.24793e-09
-3.76983e-06
-4.36751e-09
-3.04401e-06
-9.77172e-07
3.2151e-08
2.65672e-06
-2.19229e-06
2.88178e-08
3.46569e-06
-3.16867e-06
2.02639e-08
2.86829e-06
-3.80792e-06
1.27368e-08
1.89373e-06
-4.08725e-06
7.00112e-09
7.81437e-07
-3.98622e-06
3.10828e-09
-4.13726e-07
-3.46865e-06
6.71136e-10
-1.66723e-06
-2.50331e-06
-1.56008e-09
-2.89744e-06
-1.16544e-06
-5.17543e-09
-3.77086e-06
-9.93004e-09
-3.04435e-06
-9.77992e-07
4.99709e-08
2.65794e-06
-2.18657e-06
3.94085e-08
3.45914e-06
-3.15606e-06
2.71095e-08
2.85977e-06
-3.79006e-06
1.76325e-08
1.88626e-06
-4.06642e-06
1.0855e-08
7.76805e-07
-3.9651e-06
6.66869e-09
-4.14035e-07
-3.45048e-06
4.32913e-09
-1.66158e-06
-2.49194e-06
2.2672e-09
-2.8852e-06
-1.16272e-06
-4.17697e-09
-3.75407e-06
-1.82316e-08
-3.03252e-06
-9.36719e-07
5.60303e-08
2.57381e-06
-2.0855e-06
3.61569e-08
3.32256e-06
-3.00678e-06
2.43574e-08
2.74321e-06
-3.60996e-06
1.67486e-08
1.81155e-06
-3.87364e-06
1.17531e-08
7.51625e-07
-3.77824e-06
9.16535e-09
-3.85331e-07
-3.28958e-06
8.24991e-09
-1.57593e-06
-2.37851e-06
7.28548e-09
-2.74385e-06
-1.11368e-06
-2.00487e-10
-3.57899e-06
-2.47277e-08
-2.91115e-06
-6.29848e-07
1.87802e-06
-1.41467e-06
2.34292e-06
-2.04932e-06
1.93401e-06
-2.47031e-06
1.29475e-06
-2.66052e-06
5.67194e-07
-2.60349e-06
-2.16135e-07
-2.27247e-06
-1.04077e-06
-1.64545e-06
-1.85581e-06
-7.70054e-07
-2.46206e-06
-2.08556e-06
-8.81565e-07
-8.19967e-08
2.84158e-06
-1.89907e-06
-5.5785e-08
3.41621e-06
-2.67971e-06
-3.71233e-08
2.75176e-06
-3.18852e-06
-2.38499e-08
1.82742e-06
-3.43605e-06
-1.46136e-08
8.29334e-07
-3.41408e-06
-9.14113e-09
-2.28963e-07
-3.07168e-06
-6.74024e-09
-1.37643e-06
-2.3295e-06
-5.80209e-09
-2.59219e-06
-1.17149e-06
1.81047e-09
-3.62188e-06
2.82826e-08
-3.28534e-06
-1.30198e-06
-7.25806e-08
3.86637e-06
-2.7909e-06
-5.8409e-08
4.8141e-06
-3.92561e-06
-3.88143e-08
3.87962e-06
-4.65495e-06
-2.27818e-08
2.53983e-06
-4.99774e-06
-1.10534e-08
1.09086e-06
-4.94697e-06
-3.58229e-09
-4.41669e-07
-4.4359e-06
2.45842e-10
-2.09398e-06
-3.35513e-06
2.86531e-09
-3.83329e-06
-1.68392e-06
9.24084e-09
-5.25762e-06
2.19948e-08
-4.58878e-06
-1.35677e-06
-4.6117e-08
3.98824e-06
-2.92199e-06
-4.1414e-08
5.00737e-06
-4.11645e-06
-2.7752e-08
4.04317e-06
-4.88373e-06
-1.53149e-08
2.64607e-06
-5.24361e-06
-5.70333e-09
1.13134e-06
-5.18941e-06
8.50173e-10
-4.72667e-07
-4.65187e-06
4.9577e-09
-2.20382e-06
-3.51543e-06
7.3898e-09
-4.02617e-06
-1.75993e-06
1.04419e-08
-5.51077e-06
1.30503e-08
-4.78351e-06
-1.35462e-06
-2.18453e-08
3.98707e-06
-2.92733e-06
-2.07646e-08
5.01776e-06
-4.1303e-06
-1.40448e-08
4.05756e-06
-4.90446e-06
-7.49845e-09
2.66008e-06
-5.26878e-06
-2.26938e-09
1.14232e-06
-5.21629e-06
1.45228e-09
-4.66817e-07
-4.67658e-06
3.85054e-09
-2.20584e-06
-3.53306e-06
5.23595e-09
-4.0388e-06
-1.76679e-06
6.35709e-09
-5.53305e-06
6.1452e-09
-4.80424e-06
-1.35049e-06
-4.68757e-13
3.98023e-06
-2.92247e-06
4.23342e-13
5.01285e-06
-4.1265e-06
1.48746e-12
4.05646e-06
-4.90229e-06
1.24729e-12
2.66219e-06
-5.2682e-06
4.17588e-13
1.14668e-06
-5.21699e-06
9.32126e-14
-4.61066e-07
-4.67789e-06
5.33979e-13
-2.20002e-06
-3.53398e-06
4.75389e-13
-4.03422e-06
-1.76677e-06
2.56974e-13
-5.53068e-06
4.64233e-13
-4.80463e-06
-1.35049e-06
2.18445e-08
3.98023e-06
-2.92247e-06
2.07655e-08
5.01285e-06
-4.1265e-06
1.40478e-08
4.05646e-06
-4.90229e-06
7.50089e-09
2.66219e-06
-5.2682e-06
2.27006e-09
1.14668e-06
-5.21699e-06
-1.45222e-09
-4.61066e-07
-4.67789e-06
-3.8493e-09
-2.20002e-06
-3.53398e-06
-5.23473e-09
-4.03422e-06
-1.76677e-06
-6.35633e-09
-5.53068e-06
-6.14434e-09
-4.80463e-06
-1.35462e-06
4.61169e-08
3.98707e-06
-2.92733e-06
4.14153e-08
5.01776e-06
-4.13031e-06
2.77548e-08
4.05756e-06
-4.90447e-06
1.53166e-08
2.66008e-06
-5.26878e-06
5.70359e-09
1.14232e-06
-5.21629e-06
-8.50706e-10
-4.66817e-07
-4.67658e-06
-4.95636e-09
-2.20584e-06
-3.53306e-06
-7.38819e-09
-4.0388e-06
-1.76679e-06
-1.04409e-08
-5.53305e-06
-1.30492e-08
-4.80424e-06
-1.35677e-06
7.25817e-08
3.98824e-06
-2.92199e-06
5.84109e-08
5.00737e-06
-4.11645e-06
3.88166e-08
4.04317e-06
-4.88373e-06
2.27823e-08
2.64607e-06
-5.24361e-06
1.10523e-08
1.13133e-06
-5.18941e-06
3.5808e-09
-4.72667e-07
-4.65187e-06
-2.44046e-10
-2.20382e-06
-3.51543e-06
-2.86281e-09
-4.02617e-06
-1.75993e-06
-9.23926e-09
-5.51077e-06
-2.19936e-08
-4.78351e-06
-1.30198e-06
8.19996e-08
3.86637e-06
-2.7909e-06
5.57882e-08
4.8141e-06
-3.92561e-06
3.71257e-08
3.87962e-06
-4.65495e-06
2.38496e-08
2.53983e-06
-4.99775e-06
1.46118e-08
1.09086e-06
-4.94697e-06
9.13916e-09
-4.41669e-07
-4.4359e-06
6.74177e-09
-2.09398e-06
-3.35513e-06
5.80562e-09
-3.83329e-06
-1.68392e-06
-1.80852e-09
-5.25762e-06
-2.82822e-08
-4.58878e-06
-8.81565e-07
2.84158e-06
-1.89907e-06
3.41621e-06
-2.67971e-06
2.75177e-06
-3.18852e-06
1.82742e-06
-3.43605e-06
8.29333e-07
-3.41408e-06
-2.28964e-07
-3.07168e-06
-1.37643e-06
-2.3295e-06
-2.59219e-06
-1.17149e-06
-3.62188e-06
-3.28533e-06
-1.32693e-06
-1.23677e-07
4.29219e-06
-2.6565e-06
-8.54515e-08
4.83122e-06
-3.58794e-06
-5.196e-08
3.73517e-06
-4.17439e-06
-2.74223e-08
2.44129e-06
-4.48693e-06
-1.04749e-08
1.15235e-06
-4.54255e-06
7.48282e-10
-1.74088e-07
-4.26075e-06
4.9648e-09
-1.66319e-06
-3.45657e-06
4.85151e-09
-3.40122e-06
-1.94738e-06
9.2359e-09
-5.1403e-06
2.61479e-08
-5.25887e-06
-1.93291e-06
-1.06692e-07
5.78229e-06
-3.88114e-06
-8.5007e-08
6.76188e-06
-5.24094e-06
-5.12696e-08
5.23873e-06
-6.08341e-06
-2.36252e-08
3.37849e-06
-6.51535e-06
-3.91058e-09
1.51624e-06
-6.56663e-06
9.87091e-09
-3.99516e-07
-6.13315e-06
1.73554e-08
-2.53985e-06
-4.9564e-06
1.89521e-08
-5.02414e-06
-2.77686e-06
2.15493e-08
-7.44947e-06
2.28891e-08
-7.36239e-06
-2.00809e-06
-6.60041e-08
5.95564e-06
-4.05472e-06
-5.81166e-08
7.02712e-06
-5.48807e-06
-3.52734e-08
5.46052e-06
-6.37645e-06
-1.46451e-08
3.52547e-06
-6.8313e-06
9.26143e-10
1.58135e-06
-6.88523e-06
1.22502e-08
-4.21121e-07
-6.42951e-06
1.86548e-08
-2.66084e-06
-5.19357e-06
2.06578e-08
-5.26382e-06
-2.90605e-06
2.07996e-08
-7.79753e-06
1.56651e-08
-7.68234e-06
-2.00324e-06
-3.06793e-08
5.95498e-06
-4.05825e-06
-2.85065e-08
7.04316e-06
-5.50244e-06
-1.74957e-08
5.48397e-06
-6.40011e-06
-6.89716e-09
3.55e-06
-6.86161e-06
1.4612e-09
1.60329e-06
-6.91963e-06
7.57243e-09
-4.04122e-07
-6.46455e-06
1.1131e-08
-2.65339e-06
-5.22316e-06
1.23242e-08
-5.27186e-06
-2.92336e-06
1.19145e-08
-7.82397e-06
8.04663e-09
-7.71997e-06
-1.99667e-06
-5.53499e-13
5.94622e-06
-4.04998e-06
2.45252e-13
7.03764e-06
-5.49555e-06
5.01967e-13
5.48454e-06
-6.39572e-06
2.4976e-13
3.55546e-06
-6.85974e-06
-2.94746e-14
1.61216e-06
-6.92023e-06
3.40699e-13
-3.93005e-07
-6.4671e-06
1.3643e-12
-2.64202e-06
-5.22643e-06
1.05777e-12
-5.26256e-06
-2.9261e-06
-3.08061e-14
-7.8191e-06
4.40872e-13
-7.72269e-06
-1.99667e-06
3.06783e-08
5.94622e-06
-4.04998e-06
2.85068e-08
7.03764e-06
-5.49555e-06
1.74965e-08
5.48454e-06
-6.39572e-06
6.89741e-09
3.55546e-06
-6.85974e-06
-1.46158e-09
1.61216e-06
-6.92023e-06
-7.57193e-09
-3.93005e-07
-6.4671e-06
-1.11282e-08
-2.64202e-06
-5.22643e-06
-1.23219e-08
-5.26256e-06
-2.9261e-06
-1.19144e-08
-7.8191e-06
-8.04603e-09
-7.72269e-06
-2.00324e-06
6.60039e-08
5.95498e-06
-4.05825e-06
5.81167e-08
7.04316e-06
-5.50244e-06
3.52734e-08
5.48396e-06
-6.40011e-06
1.46442e-08
3.55e-06
-6.86161e-06
-9.27698e-10
1.60329e-06
-6.91963e-06
-1.22505e-08
-4.04122e-07
-6.46456e-06
-1.86524e-08
-2.65339e-06
-5.22316e-06
-2.06558e-08
-5.27186e-06
-2.92336e-06
-2.08e-08
-7.82397e-06
-1.56644e-08
-7.71997e-06
-2.00809e-06
1.06693e-07
5.95564e-06
-4.05473e-06
8.50075e-08
7.02712e-06
-5.48807e-06
5.12687e-08
5.46052e-06
-6.37645e-06
2.36221e-08
3.52547e-06
-6.8313e-06
3.90783e-09
1.58135e-06
-6.88523e-06
-9.87238e-09
-4.2112e-07
-6.42951e-06
-1.7353e-08
-2.66084e-06
-5.19357e-06
-1.89498e-08
-5.26382e-06
-2.90605e-06
-2.15501e-08
-7.79753e-06
-2.28886e-08
-7.68234e-06
-1.93291e-06
1.2368e-07
5.78229e-06
-3.88114e-06
8.54529e-08
6.76188e-06
-5.24094e-06
5.19585e-08
5.23873e-06
-6.08341e-06
2.7418e-08
3.37849e-06
-6.51535e-06
1.04711e-08
1.51624e-06
-6.56663e-06
-7.49352e-10
-3.99515e-07
-6.13315e-06
-4.9623e-09
-2.53985e-06
-4.9564e-06
-4.84865e-09
-5.02414e-06
-2.77687e-06
-9.23607e-09
-7.44947e-06
-2.61496e-08
-7.36239e-06
-1.32693e-06
4.29219e-06
-2.65649e-06
4.83123e-06
-3.58794e-06
3.73517e-06
-4.17439e-06
2.44129e-06
-4.48693e-06
1.15234e-06
-4.54256e-06
-1.74091e-07
-4.26075e-06
-1.66319e-06
-3.45657e-06
-3.40122e-06
-1.94739e-06
-5.1403e-06
-5.25887e-06
-2.17505e-06
-1.90065e-07
6.65731e-06
-3.82803e-06
-1.25566e-07
6.60977e-06
-4.80853e-06
-5.93845e-08
4.77506e-06
-5.3838e-06
-1.34353e-08
3.02999e-06
-5.73105e-06
1.55913e-08
1.48401e-06
-5.91753e-06
3.49688e-08
-2.2576e-08
-5.84901e-06
4.8794e-08
-1.78051e-06
-5.18373e-06
4.85237e-08
-4.11502e-06
-3.37058e-06
4.74715e-08
-7.00093e-06
1.64491e-08
-8.6459e-06
-3.09228e-06
-1.57366e-07
8.84187e-06
-5.53605e-06
-1.19324e-07
9.19941e-06
-6.98521e-06
-5.79515e-08
6.68645e-06
-7.81302e-06
-1.0252e-08
4.20313e-06
-8.28481e-06
2.32419e-08
1.98038e-06
-8.50131e-06
4.68792e-08
-1.94935e-07
-8.34642e-06
6.12915e-08
-2.70724e-06
-7.34343e-06
6.29514e-08
-6.04156e-06
-4.71336e-06
5.78412e-08
-1.00899e-05
1.98572e-08
-1.20792e-05
-3.19685e-06
-9.35923e-08
9.08871e-06
-5.76558e-06
-7.87371e-08
9.55526e-06
-7.2997e-06
-3.97737e-08
6.97646e-06
-8.17759e-06
-6.03049e-09
4.39914e-06
-8.6749e-06
1.92351e-08
2.08267e-06
-8.90104e-06
3.74563e-08
-1.85555e-07
-8.73702e-06
4.78378e-08
-2.8114e-06
-7.68352e-06
4.93064e-08
-6.30368e-06
-4.92801e-06
4.32778e-08
-1.05385e-05
1.65267e-08
-1.2607e-05
-3.18659e-06
-4.24134e-08
9.09039e-06
-5.76417e-06
-3.78629e-08
9.57987e-06
-7.31218e-06
-1.97934e-08
7.012e-06
-8.20244e-06
-2.99914e-09
4.43723e-06
-8.70867e-06
1.01305e-08
2.11862e-06
-8.94292e-06
1.96765e-08
-1.5209e-07
-8.78458e-06
2.49492e-08
-2.78884e-06
-7.73108e-06
2.56972e-08
-6.30175e-06
-4.96535e-06
2.21087e-08
-1.05685e-05
9.31353e-09
-1.26781e-05
-3.17598e-06
-7.85187e-13
9.07979e-06
-5.75031e-06
-5.33635e-13
9.57411e-06
-7.30041e-06
-6.57339e-13
7.01485e-06
-8.19451e-06
-4.62389e-13
4.44656e-06
-8.70454e-06
9.85504e-14
2.13232e-06
-8.94328e-06
9.30903e-13
-1.34589e-07
-8.78909e-06
1.33504e-12
-2.77127e-06
-7.73881e-06
1.55188e-13
-6.28714e-06
-4.97417e-06
-5.0972e-13
-1.05616e-05
2.72238e-13
-1.26876e-05
-3.17598e-06
4.2412e-08
9.07979e-06
-5.75031e-06
3.78614e-08
9.57411e-06
-7.30041e-06
1.97918e-08
7.01485e-06
-8.19451e-06
2.99794e-09
4.44656e-06
-8.70454e-06
-1.01303e-08
2.13232e-06
-8.94328e-06
-1.96747e-08
-1.34589e-07
-8.78909e-06
-2.49464e-08
-2.77127e-06
-7.73881e-06
-2.56966e-08
-6.28714e-06
-4.97417e-06
-2.21099e-08
-1.05616e-05
-9.31295e-09
-1.26876e-05
-3.18659e-06
9.35914e-08
9.09039e-06
-5.76417e-06
7.8735e-08
9.57987e-06
-7.31218e-06
3.97715e-08
7.012e-06
-8.20244e-06
6.02852e-09
4.43723e-06
-8.70867e-06
-1.92351e-08
2.11862e-06
-8.94292e-06
-3.74548e-08
-1.5209e-07
-8.78458e-06
-4.78353e-08
-2.78884e-06
-7.73108e-06
-4.93063e-08
-6.30175e-06
-4.96534e-06
-4.32797e-08
-1.05685e-05
-1.65254e-08
-1.26781e-05
-3.19685e-06
1.57366e-07
9.08872e-06
-5.76558e-06
1.19322e-07
9.55526e-06
-7.2997e-06
5.79484e-08
6.97646e-06
-8.17759e-06
1.02487e-08
4.39914e-06
-8.6749e-06
-2.32424e-08
2.08267e-06
-8.90104e-06
-4.68778e-08
-1.85553e-07
-8.73702e-06
-6.12888e-08
-2.8114e-06
-7.68353e-06
-6.29514e-08
-6.30367e-06
-4.92801e-06
-5.7843e-08
-1.05385e-05
-1.98546e-08
-1.2607e-05
-3.09228e-06
1.90067e-07
8.84187e-06
-5.53605e-06
1.25564e-07
9.19941e-06
-6.9852e-06
5.93811e-08
6.68645e-06
-7.81302e-06
1.34314e-08
4.20313e-06
-8.28482e-06
-1.55919e-08
1.98039e-06
-8.50131e-06
-3.49665e-08
-1.94934e-07
-8.34642e-06
-4.879e-08
-2.70724e-06
-7.34343e-06
-4.85227e-08
-6.04156e-06
-4.71336e-06
-4.74739e-08
-1.00899e-05
-1.64505e-08
-1.20791e-05
-2.17505e-06
6.65731e-06
-3.82803e-06
6.60977e-06
-4.80853e-06
4.77506e-06
-5.3838e-06
3.02999e-06
-5.73106e-06
1.48401e-06
-5.91754e-06
-2.25779e-08
-5.84901e-06
-1.78051e-06
-5.18373e-06
-4.11502e-06
-3.37058e-06
-7.00093e-06
-8.6459e-06
-3.73846e-06
-2.62542e-07
1.06583e-05
-5.30182e-06
-1.5004e-07
8.32317e-06
-5.88535e-06
-2.5086e-08
5.38367e-06
-6.14028e-06
4.90381e-08
3.23588e-06
-6.36691e-06
9.25811e-08
1.61806e-06
-6.63554e-06
1.25444e-07
1.20615e-07
-6.97486e-06
1.71007e-07
-1.6122e-06
-6.81297e-06
1.94753e-07
-4.47166e-06
-5.22374e-06
2.12161e-07
-8.80232e-06
1.83748e-08
-1.3888e-05
-5.18704e-06
-2.15734e-07
1.39821e-05
-7.56349e-06
-1.48173e-07
1.1574e-05
-8.44362e-06
-4.15965e-08
7.5831e-06
-8.7792e-06
3.48862e-08
4.55285e-06
-9.02191e-06
8.44372e-08
2.23124e-06
-9.27849e-06
1.23474e-07
6.36116e-08
-9.59963e-06
1.57454e-07
-2.37254e-06
-9.20032e-06
1.70679e-07
-6.41679e-06
-6.83478e-06
1.65425e-07
-1.24087e-05
1.26775e-08
-1.89082e-05
-5.34522e-06
-1.26536e-07
1.43447e-05
-7.84717e-06
-9.93461e-08
1.20084e-05
-8.79167e-06
-3.57845e-08
7.91514e-06
-9.15412e-06
1.60532e-08
4.78042e-06
-9.40372e-06
5.29443e-08
2.36377e-06
-9.65857e-06
8.13658e-08
1.11404e-07
-9.97913e-06
1.00459e-07
-2.43385e-06
-9.54725e-06
1.04736e-07
-6.66961e-06
-7.07934e-06
9.1571e-08
-1.29325e-05
1.1181e-08
-1.96849e-05
-5.32886e-06
-5.65318e-08
1.43492e-05
-7.83425e-06
-4.79413e-08
1.20339e-05
-8.79408e-06
-1.97788e-08
7.95582e-06
-9.17046e-06
5.46163e-09
4.8242e-06
-9.42893e-06
2.42448e-08
2.40579e-06
-9.69308e-06
3.84555e-08
1.5497e-07
-1.0025e-05
4.6948e-08
-2.40335e-06
-9.60244e-06
4.78316e-08
-6.66746e-06
-7.13838e-06
3.96609e-08
-1.29807e-05
7.43281e-09
-1.98127e-05
-5.31294e-06
-4.88276e-13
1.43362e-05
-7.81196e-06
-6.08638e-13
1.20252e-05
-8.77516e-06
-1.02875e-12
7.95827e-06
-9.15727e-06
-4.80321e-13
4.83413e-06
-9.42095e-06
9.83662e-13
2.42024e-06
-9.69141e-06
1.21145e-12
1.74323e-07
-1.00306e-05
3.4123e-13
-2.38517e-06
-9.6154e-06
-8.4492e-14
-6.65447e-06
-7.15712e-06
-4.73382e-14
-1.29802e-05
3.91695e-13
-1.98372e-05
-5.31294e-06
5.65309e-08
1.43362e-05
-7.81196e-06
4.79395e-08
1.20252e-05
-8.77516e-06
1.97766e-08
7.95827e-06
-9.15727e-06
-5.46255e-09
4.83414e-06
-9.42095e-06
-2.42427e-08
2.42025e-06
-9.69141e-06
-3.84529e-08
1.74323e-07
-1.00306e-05
-4.6947e-08
-2.38517e-06
-9.6154e-06
-4.78315e-08
-6.65447e-06
-7.15712e-06
-3.96613e-08
-1.29802e-05
-7.43212e-09
-1.98372e-05
-5.32886e-06
1.26535e-07
1.43492e-05
-7.83425e-06
9.93435e-08
1.20339e-05
-8.79408e-06
3.57825e-08
7.95582e-06
-9.17046e-06
-1.60541e-08
4.8242e-06
-9.42893e-06
-5.29418e-08
2.40579e-06
-9.69308e-06
-8.13632e-08
1.54969e-07
-1.0025e-05
-1.00459e-07
-2.40335e-06
-9.60244e-06
-1.04737e-07
-6.66745e-06
-7.13838e-06
-9.15724e-08
-1.29807e-05
-1.11793e-08
-1.98127e-05
-5.34521e-06
2.15733e-07
1.43447e-05
-7.84717e-06
1.4817e-07
1.20084e-05
-8.79167e-06
4.15943e-08
7.91514e-06
-9.15412e-06
-3.48869e-08
4.78042e-06
-9.40372e-06
-8.44343e-08
2.36377e-06
-9.65857e-06
-1.23472e-07
1.11404e-07
-9.97913e-06
-1.57453e-07
-2.43385e-06
-9.54726e-06
-1.70679e-07
-6.66961e-06
-7.07934e-06
-1.65426e-07
-1.29325e-05
-1.26764e-08
-1.96849e-05
-5.18704e-06
2.62542e-07
1.39821e-05
-7.56349e-06
1.50037e-07
1.1574e-05
-8.44362e-06
2.50845e-08
7.5831e-06
-8.7792e-06
-4.9039e-08
4.55285e-06
-9.02192e-06
-9.2578e-08
2.23125e-06
-9.27849e-06
-1.2544e-07
6.36096e-08
-9.59963e-06
-1.71006e-07
-2.37255e-06
-9.20032e-06
-1.94754e-07
-6.41679e-06
-6.83478e-06
-2.1216e-07
-1.24087e-05
-1.83738e-08
-1.89082e-05
-3.73846e-06
1.06583e-05
-5.30182e-06
8.32317e-06
-5.88535e-06
5.38367e-06
-6.14029e-06
3.23589e-06
-6.36691e-06
1.61806e-06
-6.63554e-06
1.20612e-07
-6.97486e-06
-1.6122e-06
-6.81297e-06
-4.47165e-06
-5.22374e-06
-8.80232e-06
-1.3888e-05
-4.23199e-06
-4.80382e-07
1.53707e-05
-3.71732e-06
-1.95837e-07
8.00433e-06
-2.54982e-06
5.67941e-08
4.15938e-06
-1.72955e-06
1.68744e-07
2.24687e-06
-1.38467e-06
2.23176e-07
1.05e-06
-1.65413e-06
2.89574e-07
1.00497e-07
-2.42133e-06
3.76169e-07
-1.22117e-06
-3.48592e-06
4.33824e-07
-3.84089e-06
-3.73696e-06
5.03804e-07
-9.05509e-06
-1.73801e-07
-1.74512e-05
-5.81664e-06
-3.50367e-07
1.96687e-05
-5.1965e-06
-2.0002e-07
1.0958e-05
-3.48095e-06
3.00975e-09
5.92134e-06
-2.13684e-06
1.0696e-07
3.27052e-06
-1.40615e-06
1.72731e-07
1.55099e-06
-1.47167e-06
2.32452e-07
1.86253e-07
-2.14655e-06
2.98649e-07
-1.62014e-06
-3.29838e-06
3.25389e-07
-5.15653e-06
-3.37942e-06
3.2375e-07
-1.21476e-05
-1.15532e-07
-2.23459e-05
-5.95506e-06
-1.86843e-07
2.01363e-05
-5.32239e-06
-1.34043e-07
1.13098e-05
-3.54557e-06
-2.94546e-08
6.17078e-06
-2.13974e-06
4.37171e-08
3.43784e-06
-1.3468e-06
9.34986e-08
1.65005e-06
-1.3639e-06
1.32835e-07
2.28126e-07
-2.01912e-06
1.67741e-07
-1.64773e-06
-3.19931e-06
1.73353e-07
-5.33738e-06
-3.31939e-06
1.5005e-07
-1.26388e-05
-4.23863e-08
-2.30774e-05
-5.91277e-06
-7.90625e-08
2.01542e-05
-5.26241e-06
-6.39225e-08
1.13134e-05
-3.4962e-06
-2.11598e-08
6.18131e-06
-2.09978e-06
1.38735e-08
3.45762e-06