/*--------------------------------*- C++ -*----------------------------------*\
  =========                 |
  \\      /  F ield         | OpenFOAM: The Open Source CFD Toolbox
   \\    /   O peration     | Website:  https://openfoam.org
    \\  /    A nd           | Version:  9
     \\/     M anipulation  |
\*---------------------------------------------------------------------------*/
FoamFile
{
    format      ascii;
    class       volScalarField;
    location    "0.26";
    object      p;
}
// * * * * * * * * * * * * * * * * * * * * * * * * * * * * * * * * * * * * * //

dimensions      [0 2 -2 0 0 0 0];

internalField   nonuniform List<scalar> 
1000
(
6.23091e-08
-0.000348681
0.00024199
0.00163727
0.00379691
0.00652654
0.00940223
0.0117754
0.0130121
0.0124256
0.000170044
-0.000485928
4.47021e-05
0.00149401
0.00379764
0.00674063
0.00984978
0.0123846
0.0135875
0.0125443
0.000627302
-0.000218454
0.000282152
0.00178257
0.00421945
0.00737055
0.0107118
0.0133704
0.0144735
0.0129576
0.00106467
0.000110556
0.000590991
0.00212529
0.00465522
0.00795438
0.011439
0.0141655
0.0151872
0.0133625
0.00132143
0.000322707
0.000793718
0.00234223
0.00491403
0.00827939
0.0118331
0.0145887
0.0155699
0.0136033
0.00132141
0.000322689
0.000793706
0.00234223
0.00491403
0.00827939
0.0118331
0.0145887
0.0155699
0.0136033
0.0010646
0.000110499
0.000590952
0.00212527
0.0046552
0.00795438
0.011439
0.0141655
0.0151872
0.0133625
0.000627164
-0.000218554
0.000282084
0.00178254
0.00421943
0.00737054
0.0107118
0.0133704
0.0144735
0.0129576
0.000169807
-0.000486093
4.4603e-05
0.00149396
0.00379762
0.00674064
0.0098498
0.0123846
0.0135876
0.0125443
-2.42109e-07
-0.000348911
0.00024186
0.00163721
0.00379689
0.00652654
0.00940224
0.0117755
0.0130122
0.0124256
0.000240599
-0.000131331
0.000457354
0.00175858
0.00375317
0.00629907
0.00903122
0.0113879
0.0126726
0.0119089
0.000728053
1.27952e-05
0.000555299
0.00185455
0.00387403
0.00648101
0.00931704
0.0117373
0.0129749
0.0116257
0.0014889
0.00051314
0.001015
0.00231246
0.00437087
0.00706264
0.0100348
0.0125189
0.0136533
0.0117861
0.00210354
0.000972732
0.00144205
0.00273563
0.00482425
0.00758871
0.0106538
0.0131781
0.0142327
0.0120335
0.00243632
0.00123724
0.00168934
0.00297932
0.00508185
0.00788437
0.0109934
0.0135363
0.0145525
0.012207
0.0024363
0.00123723
0.00168933
0.00297931
0.00508185
0.00788436
0.0109934
0.0135363
0.0145525
0.012207
0.00210348
0.000972683
0.00144202
0.0027356
0.00482424
0.0075887
0.0106538
0.0131781
0.0142327
0.0120335
0.00148879
0.000513056
0.00101494
0.00231243
0.00437085
0.00706263
0.0100348
0.0125189
0.0136533
0.0117862
0.000727882
1.26692e-05
0.000555218
0.00185451
0.00387401
0.006481
0.00931704
0.0117374
0.0129749
0.0116257
0.000240366
-0.000131495
0.000457254
0.00175853
0.00375315
0.00629907
0.00903122
0.0113879
0.0126726
0.0119089
-0.000977551
-0.001477
-0.000903545
0.000384
0.00241753
0.00515639
0.00831163
0.0112742
0.0130938
0.0121579
-0.000216832
-0.00118732
-0.000665576
0.000613359
0.00266197
0.00546411
0.00873936
0.0118023
0.0135559
0.0116533
0.000888834
-0.000445269
1.38041e-05
0.00125893
0.00331037
0.00617152
0.0095981
0.0127542
0.014388
0.0117169
0.001743
0.00019333
0.000599779
0.00181101
0.00386304
0.00678749
0.0102928
0.0135008
0.0150427
0.0118966
0.00219111
0.000546661
0.000924284
0.00211473
0.00416298
0.00711376
0.0106581
0.0138897
0.0153884
0.0120397
0.0021911
0.000546648
0.000924274
0.00211472
0.00416297
0.00711376
0.0106581
0.0138897
0.0153884
0.0120397
0.00174295
0.000193291
0.000599748
0.00181099
0.00386303
0.00678747
0.0102927
0.0135008
0.0150427
0.0118966
0.000888754
-0.000445333
1.37558e-05
0.0012589
0.00331035
0.0061715
0.00959809
0.0127542
0.014388
0.0117169
-0.000216947
-0.00118741
-0.000665642
0.000613317
0.00266194
0.0054641
0.00873935
0.0118023
0.0135559
0.0116533
-0.000977695
-0.00147711
-0.000903621
0.000383951
0.0024175
0.00515638
0.00831162
0.0112742
0.0130938
0.0121579
-0.00393597
-0.00454419
-0.0039576
-0.00264779
-0.000496175
0.00263559
0.00664888
0.0109581
0.0141503
0.0134737
-0.0028689
-0.0040944
-0.00356749
-0.00226384
-8.69256e-05
0.00314473
0.0073459
0.011885
0.0150144
0.0128892
-0.00135851
-0.00306401
-0.00264034
-0.00142724
0.000692368
0.003961
0.00829631
0.0130133
0.0160677
0.0129383
-0.000214296
-0.00220474
-0.00187103
-0.000745711
0.00130183
0.00450951
0.00898562
0.0138184
0.0168115
0.0131006
0.000376374
-0.00173903
-0.00145529
-0.000381544
0.00162863
0.00484524
0.00933535
0.0142131
0.0171786
0.0132284
0.000376363
-0.00173904
-0.0014553
-0.000381552
0.00162863
0.00484524
0.00933535
0.0142131
0.0171786
0.0132284
-0.000214331
-0.00220477
-0.00187106
-0.000745728
0.00130182
0.00450949
0.00898562
0.0138184
0.0168115
0.0131006
-0.00135856
-0.00306406
-0.00264038
-0.00142727
0.000692346
0.00396098
0.0082963
0.0130133
0.0160676
0.0129383
-0.00286897
-0.00409447
-0.00356754
-0.00226389
-8.69555e-05
0.0031447
0.00734588
0.011885
0.0150144
0.0128892
-0.00393605
-0.00454427
-0.00395766
-0.00264784
-0.000496209
0.00263556
0.00664886
0.0109581
0.0141503
0.0134736
-0.0092963
-0.00987639
-0.00919838
-0.00787306
-0.00566321
-0.0021025
0.00318596
0.00990004
0.0160205
0.0170652
-0.00786818
-0.00924417
-0.00865642
-0.00736494
-0.0051508
-0.00148863
0.00404182
0.0111909
0.0173614
0.0167828
-0.00591048
-0.00790724
-0.00751798
-0.00646561
-0.00450165
-0.000987487
0.00455839
0.0120312
0.0183849
0.0169584
-0.00445413
-0.00681686
-0.00659477
-0.00575356
-0.00400629
-0.000602067
0.00489666
0.0125593
0.0190184
0.0171735
-0.00371309
-0.00623524
-0.00610428
-0.00537971
-0.00375827
-0.000472382
0.00503794
0.0127922
0.0193018
0.0173024
-0.0037131
-0.00623525
-0.00610429
-0.00537972
-0.00375827
-0.000472384
0.00503794
0.0127922
0.0193018
0.0173024
-0.00445415
-0.00681688
-0.00659479
-0.00575357
-0.00400629
-0.000602072
0.00489665
0.0125593
0.0190184
0.0171735
-0.00591052
-0.00790727
-0.007518
-0.00646564
-0.00450166
-0.000987506
0.00455837
0.0120312
0.0183849
0.0169584
-0.00786822
-0.00924421
-0.00865646
-0.00736497
-0.00515083
-0.00148865
0.00404181
0.0111908
0.0173614
0.0167828
-0.00929635
-0.00987643
-0.00919842
-0.00787309
-0.00566324
-0.00210253
0.00318593
0.00990002
0.0160205
0.0170652
-0.0179363
-0.0180385
-0.0170172
-0.0156511
-0.0135341
-0.00968505
-0.00280457
0.00766742
0.0193088
0.0254245
-0.0160573
-0.0172238
-0.0164111
-0.015226
-0.0133132
-0.00969924
-0.00291631
0.0080865
0.0203014
0.0257949
-0.0136103
-0.0155928
-0.0151877
-0.0145728
-0.0133567
-0.0104232
-0.00404096
0.0073763
0.0204066
0.0261179
-0.0118325
-0.0142831
-0.0141917
-0.0140249
-0.0133546
-0.0109377
-0.0048634
0.00679292
0.020336
0.0263162
-0.0109435
-0.0135934
-0.0136648
-0.0137313
-0.0133414
-0.0111962
-0.00527277
0.0064921
0.0202726
0.0263983
-0.0109435
-0.0135934
-0.0136648
-0.0137313
-0.0133414
-0.0111962
-0.00527277
0.0064921
0.0202726
0.0263983
-0.0118326
-0.0142831
-0.0141917
-0.0140249
-0.0133546
-0.0109378
-0.00486341
0.00679291
0.020336
0.0263162
-0.0136103
-0.0155928
-0.0151877
-0.0145728
-0.0133567
-0.0104232
-0.00404098
0.00737629
0.0204066
0.0261179
-0.0160573
-0.0172238
-0.0164111
-0.0152261
-0.0133133
-0.00969926
-0.00291633
0.00808649
0.0203014
0.0257949
-0.0179363
-0.0180386
-0.0170173
-0.0156512
-0.0135342
-0.00968509
-0.0028046
0.00766739
0.0193088
0.0254244
-0.0313861
-0.0294659
-0.0272972
-0.0255688
-0.0235667
-0.0196417
-0.0111225
0.00436982
0.0248304
0.0426305
-0.0288362
-0.0284109
-0.0267831
-0.0256279
-0.0243512
-0.0214514
-0.0140572
0.00145167
0.0230726
0.0428901
-0.0257888
-0.0264345
-0.0255835
-0.0255388
-0.025666
-0.0243652
-0.0182496
-0.00251169
0.0207634
0.0429478
-0.023657
-0.0248818
-0.0245612
-0.025303
-0.0264479
-0.0262579
-0.0209556
-0.00503765
0.0192794
0.0429444
-0.0226173
-0.0240768
-0.0240152
-0.025144
-0.0267841
-0.0271326
-0.0222055
-0.00619129
0.0186103
0.0429152
-0.0226173
-0.0240768
-0.0240152
-0.025144
-0.0267841
-0.0271326
-0.0222055
-0.00619129
0.0186103
0.0429152
-0.023657
-0.0248818
-0.0245612
-0.025303
-0.0264479
-0.0262579
-0.0209556
-0.00503766
0.0192794
0.0429443
-0.0257888
-0.0264345
-0.0255835
-0.0255389
-0.025666
-0.0243652
-0.0182496
-0.0025117
0.0207634
0.0429478
-0.0288362
-0.0284109
-0.0267831
-0.025628
-0.0243513
-0.0214514
-0.0140572
0.00145165
0.0230726
0.0428901
-0.0313861
-0.0294659
-0.0272972
-0.0255689
-0.0235667
-0.0196418
-0.0111226
0.0043698
0.0248304
0.0426305
-0.0540499
-0.0442408
-0.0389754
-0.0357295
-0.0333
-0.0291372
-0.0195521
0.00183212
0.0336899
0.0753414
-0.0502356
-0.0426452
-0.0384206
-0.0365132
-0.0355741
-0.0335055
-0.0266361
-0.00675302
0.0263299
0.0755483
-0.0461543
-0.0398801
-0.0368333
-0.0366865
-0.0379072
-0.0382635
-0.0336154
-0.0138992
0.0215172
0.0764802
-0.0434525
-0.0378234
-0.0354967
-0.0364734
-0.039149
-0.041072
-0.037704
-0.0178294
0.0191582
0.0773596
-0.0421874
-0.0367947
-0.0347971
-0.0362954
-0.039648
-0.0423017
-0.0395057
-0.0195071
0.0182411
0.077744
-0.0421874
-0.0367947
-0.0347971
-0.0362954
-0.039648
-0.0423017
-0.0395057
-0.0195071
0.0182411
0.077744
-0.0434525
-0.0378234
-0.0354967
-0.0364734
-0.039149
-0.041072
-0.0377041
-0.0178294
0.0191582
0.0773596
-0.0461543
-0.0398802
-0.0368333
-0.0366866
-0.0379072
-0.0382635
-0.0336154
-0.0138992
0.0215172
0.0764801
-0.0502356
-0.0426452
-0.0384206
-0.0365132
-0.0355741
-0.0335055
-0.0266362
-0.00675305
0.0263299
0.0755483
-0.0540499
-0.0442408
-0.0389754
-0.0357295
-0.0333
-0.0291372
-0.0195522
0.00183209
0.0336899
0.0753414
-0.0867691
-0.0597083
-0.0504799
-0.0435196
-0.0394428
-0.0341674
-0.0221567
0.00754983
0.0526733
0.150558
-0.0788612
-0.0562988
-0.0493027
-0.0449415
-0.0429262
-0.0402669
-0.0320468
-0.0034853
0.0454719
0.161396
-0.0727442
-0.0519972
-0.0466339
-0.0445416
-0.0452776
-0.0453178
-0.0395208
-0.00974144
0.0453254
0.169422
-0.069177
-0.0490978
-0.0445907
-0.0439036
-0.0463463
-0.0480791
-0.0434784
-0.0125857
0.0457492
0.174384
-0.067623
-0.0477198
-0.043572
-0.0435061
-0.0467329
-0.049249
-0.0451557
-0.0137768
0.0459795
0.176485
-0.067623
-0.0477198
-0.043572
-0.0435061
-0.046733
-0.049249
-0.0451557
-0.0137769
0.0459795
0.176485
-0.069177
-0.0490978
-0.0445907
-0.0439036
-0.0463463
-0.0480791
-0.0434784
-0.0125857
0.0457492
0.174384
-0.0727442
-0.0519972
-0.0466339
-0.0445417
-0.0452776
-0.0453179
-0.0395208
-0.00974146
0.0453254
0.169422
-0.0788611
-0.0562988
-0.0493027
-0.0449415
-0.0429262
-0.0402669
-0.0320468
-0.00348533
0.0454718
0.161396
-0.0867691
-0.0597083
-0.0504799
-0.0435196
-0.0394428
-0.0341674
-0.0221567
0.0075498
0.0526733
0.150558
-0.197682
-0.0732543
-0.0481123
-0.0385884
-0.0330128
-0.0255468
-0.00883877
0.0349759
0.119239
0.323594
-0.185619
-0.0612618
-0.0411102
-0.0358078
-0.0335351
-0.0291246
-0.0150603
0.0311529
0.128721
0.357092
-0.177289
-0.0532262
-0.0353916
-0.0329486
-0.0336144
-0.0315913
-0.0187425
0.0302256
0.137061
0.377112
-0.172666
-0.0487622
-0.0318659
-0.0310083
-0.0334605
-0.0328824
-0.0206197
0.0298239
0.140876
0.386632
-0.170691
-0.0468354
-0.0302797
-0.0300901
-0.033349
-0.0334594
-0.021491
0.0295436
0.142295
0.3902
-0.170691
-0.0468354
-0.0302797
-0.0300901
-0.033349
-0.0334594
-0.021491
0.0295436
0.142295
0.3902
-0.172666
-0.0487622
-0.0318659
-0.0310083
-0.0334605
-0.0328824
-0.0206197
0.0298239
0.140876
0.386632
-0.177289
-0.0532262
-0.0353916
-0.0329486
-0.0336144
-0.0315913
-0.0187425
0.0302255
0.137061
0.377112
-0.185619
-0.0612618
-0.0411102
-0.0358078
-0.0335351
-0.0291246
-0.0150604
0.0311529
0.128721
0.357092
-0.197682
-0.0732543
-0.0481123
-0.0385884
-0.0330128
-0.0255469
-0.00883879
0.0349758
0.119239
0.323594
)
;

boundaryField
{
    top
    {
        type            zeroGradient;
    }
    others
    {
        type            zeroGradient;
    }
}


// ************************************************************************* //
