/*--------------------------------*- C++ -*----------------------------------*\
  =========                 |
  \\      /  F ield         | OpenFOAM: The Open Source CFD Toolbox
   \\    /   O peration     | Website:  https://openfoam.org
    \\  /    A nd           | Version:  9
     \\/     M anipulation  |
\*---------------------------------------------------------------------------*/
FoamFile
{
    format      ascii;
    class       volVectorField;
    location    "0.26";
    object      U;
}
// * * * * * * * * * * * * * * * * * * * * * * * * * * * * * * * * * * * * * //

dimensions      [0 1 -1 0 0 0 0];

internalField   nonuniform List<vector> 
1000
(
(-0.000162256 -0.000314725 0.000388815)
(-0.00189599 -0.000190261 0.00103867)
(-0.00511871 -0.000125906 0.00123667)
(-0.00821525 -0.000191832 0.0011945)
(-0.0106072 -0.000384794 0.000987274)
(-0.011653 -0.000672018 0.000592246)
(-0.010732 -0.000968314 1.50579e-05)
(-0.00762567 -0.00111622 -0.000582761)
(-0.00295966 -0.000924798 -0.000748572)
(-0.000187671 -0.000247774 -7.72464e-05)
(-0.000444733 -0.000954199 0.000629453)
(-0.00391978 -0.000915357 0.00202711)
(-0.0101049 -0.000834448 0.00243922)
(-0.0159298 -0.00097516 0.00223415)
(-0.0202669 -0.00137694 0.00159674)
(-0.0219984 -0.00198141 0.000527238)
(-0.020088 -0.00259401 -0.000892538)
(-0.0142094 -0.0028503 -0.00215729)
(-0.0056122 -0.00235536 -0.00224618)
(-0.000451092 -0.000810904 -0.000385788)
(-0.000566009 -0.0012582 0.000479576)
(-0.00489879 -0.00151922 0.00215733)
(-0.0125574 -0.00151202 0.00266185)
(-0.0197052 -0.00163455 0.0023632)
(-0.0249573 -0.00198531 0.00148672)
(-0.0269613 -0.00252464 5.17639e-05)
(-0.0244529 -0.00304902 -0.00181593)
(-0.0170695 -0.00321058 -0.00337464)
(-0.00644803 -0.0026593 -0.00326553)
(-0.000334447 -0.00111465 -0.000589517)
(-0.000587247 -0.000981115 0.000285671)
(-0.00528768 -0.00128142 0.00202302)
(-0.0136427 -0.0013029 0.0025637)
(-0.0214218 -0.00137286 0.00223857)
(-0.0271116 -0.00158205 0.00127417)
(-0.0292227 -0.00190913 -0.000311608)
(-0.0263751 -0.00221388 -0.00236908)
(-0.0182098 -0.00228318 -0.00403639)
(-0.00658042 -0.00190347 -0.00378044)
(-0.000141151 -0.00087554 -0.00066598)
(-0.00058173 -0.000363192 0.000175538)
(-0.00540671 -0.000489267 0.00191372)
(-0.0140266 -0.000501229 0.00246854)
(-0.0220523 -0.000522016 0.00214347)
(-0.0279156 -0.000587384 0.00115894)
(-0.0300681 -0.000691147 -0.000473353)
(-0.0270767 -0.0007882 -0.00258971)
(-0.0185862 -0.000806096 -0.00428919)
(-0.00655182 -0.000675748 -0.00396901)
(-2.47706e-05 -0.000324874 -0.000685564)
(-0.00058173 0.000363228 0.000175538)
(-0.00540672 0.00048929 0.00191372)
(-0.0140266 0.000501246 0.00246854)
(-0.0220523 0.000522029 0.00214347)
(-0.0279156 0.000587393 0.00115893)
(-0.0300681 0.000691152 -0.000473354)
(-0.0270767 0.000788204 -0.00258971)
(-0.0185862 0.000806097 -0.00428919)
(-0.00655182 0.000675746 -0.00396901)
(-2.47708e-05 0.000324868 -0.000685564)
(-0.000587246 0.000981154 0.000285673)
(-0.00528768 0.00128144 0.00202303)
(-0.0136427 0.00130292 0.0025637)
(-0.0214218 0.00137287 0.00223857)
(-0.0271116 0.00158206 0.00127417)
(-0.0292227 0.00190913 -0.00031161)
(-0.0263751 0.00221389 -0.00236908)
(-0.0182098 0.00228318 -0.00403639)
(-0.00658042 0.00190346 -0.00378044)
(-0.000141151 0.000875534 -0.00066598)
(-0.000566004 0.00125823 0.000479583)
(-0.00489879 0.00151923 0.00215734)
(-0.0125574 0.00151203 0.00266185)
(-0.0197052 0.00163456 0.0023632)
(-0.0249573 0.00198532 0.00148672)
(-0.0269613 0.00252465 5.17608e-05)
(-0.0244529 0.00304902 -0.00181594)
(-0.0170695 0.00321058 -0.00337465)
(-0.00644803 0.0026593 -0.00326553)
(-0.000334447 0.00111464 -0.000589518)
(-0.000444707 0.000954211 0.000629483)
(-0.00391977 0.000915345 0.00202714)
(-0.0101049 0.000834455 0.00243924)
(-0.0159299 0.000975169 0.00223415)
(-0.0202669 0.00137695 0.00159674)
(-0.0219984 0.00198141 0.000527235)
(-0.020088 0.00259402 -0.000892541)
(-0.0142094 0.0028503 -0.00215729)
(-0.0056122 0.00235537 -0.00224618)
(-0.000451091 0.000810903 -0.000385789)
(-0.00016223 0.000314695 0.000388844)
(-0.001896 0.000190232 0.0010387)
(-0.00511874 0.000125903 0.00123668)
(-0.00821529 0.000191833 0.0011945)
(-0.0106072 0.000384796 0.000987274)
(-0.011653 0.000672021 0.000592245)
(-0.0107321 0.000968316 1.50575e-05)
(-0.00762567 0.00111623 -0.000582761)
(-0.00295966 0.000924801 -0.000748573)
(-0.000187671 0.000247776 -7.72449e-05)
(-0.000765412 -0.00091821 0.00301418)
(-0.00445087 -0.00097947 0.00579211)
(-0.0103575 -0.000912432 0.00643514)
(-0.0159026 -0.000909107 0.00593319)
(-0.0201311 -0.00101585 0.00460326)
(-0.0220186 -0.00123164 0.00242464)
(-0.0205523 -0.00148221 -0.000480498)
(-0.0151997 -0.001537 -0.00335657)
(-0.0067787 -0.00112764 -0.00443687)
(-0.000999447 -2.57999e-05 -0.00187031)
(-0.00202324 -0.00235144 0.00492227)
(-0.0103064 -0.00281181 0.0106836)
(-0.0228746 -0.0027299 0.011977)
(-0.0343658 -0.00272503 0.0105094)
(-0.0427212 -0.00296914 0.00704541)
(-0.0460262 -0.0034561 0.00174218)
(-0.0424882 -0.0039975 -0.00484544)
(-0.0313148 -0.0040571 -0.010661)
(-0.0143707 -0.00306752 -0.0116795)
(-0.00241496 -0.000587402 -0.00437857)
(-0.00267003 -0.00268994 0.00498613)
(-0.0134243 -0.0035771 0.0118376)
(-0.0295517 -0.00358314 0.0133499)
(-0.0440769 -0.00356282 0.0112923)
(-0.0544025 -0.00378262 0.00659539)
(-0.0582221 -0.00424402 -0.000460645)
(-0.0533791 -0.00472129 -0.00903339)
(-0.0390001 -0.0047041 -0.016174)
(-0.0176166 -0.00366952 -0.01652)
(-0.00281895 -0.00121065 -0.00589443)
(-0.00290558 -0.00195523 0.00462183)
(-0.014767 -0.00274796 0.0117329)
(-0.0325846 -0.00278976 0.0133078)
(-0.0485335 -0.00275883 0.0110021)
(-0.059764 -0.00288045 0.00576474)
(-0.0637664 -0.00316446 -0.0020898)
(-0.0582126 -0.00343307 -0.0115423)
(-0.0422277 -0.00338468 -0.0192096)
(-0.0187017 -0.00269064 -0.0190398)
(-0.00278398 -0.00105133 -0.00660983)
(-0.00296174 -0.000701122 0.00436667)
(-0.0152073 -0.0010097 0.0115011)
(-0.0336636 -0.00103077 0.0130981)
(-0.0501559 -0.00101544 0.0107259)
(-0.0617346 -0.00104982 0.00531924)
(-0.0657993 -0.0011397 -0.00280508)
(-0.059953 -0.00122183 -0.0125589)
(-0.0433302 -0.00119954 -0.0203997)
(-0.0189752 -0.000964323 -0.0200045)
(-0.00270097 -0.000405437 -0.00686692)
(-0.00296174 0.000701147 0.00436667)
(-0.0152073 0.00100971 0.0115012)
(-0.0336636 0.00103077 0.0130981)
(-0.0501559 0.00101545 0.0107259)
(-0.0617346 0.00104983 0.00531924)
(-0.0657993 0.00113971 -0.00280508)
(-0.059953 0.00122184 -0.0125589)
(-0.0433302 0.00119955 -0.0203997)
(-0.0189752 0.000964329 -0.0200045)
(-0.00270097 0.000405437 -0.00686692)
(-0.00290557 0.00195526 0.00462183)
(-0.0147669 0.00274796 0.0117329)
(-0.0325846 0.00278976 0.0133078)
(-0.0485335 0.00275884 0.011002)
(-0.059764 0.00288046 0.00576474)
(-0.0637664 0.00316447 -0.0020898)
(-0.0582126 0.00343308 -0.0115423)
(-0.0422277 0.00338469 -0.0192096)
(-0.0187017 0.00269064 -0.0190398)
(-0.00278398 0.00105133 -0.00660983)
(-0.00267002 0.00268996 0.00498613)
(-0.0134243 0.00357709 0.0118376)
(-0.0295517 0.00358314 0.0133499)
(-0.0440769 0.00356282 0.0112922)
(-0.0544024 0.00378263 0.00659539)
(-0.0582221 0.00424403 -0.000460651)
(-0.0533791 0.0047213 -0.0090334)
(-0.0390001 0.00470411 -0.0161741)
(-0.0176166 0.00366953 -0.0165201)
(-0.00281895 0.00121065 -0.00589443)
(-0.00202322 0.00235142 0.00492229)
(-0.0103064 0.00281179 0.0106837)
(-0.0228746 0.00272989 0.011977)
(-0.0343658 0.00272503 0.0105094)
(-0.0427212 0.00296915 0.00704541)
(-0.0460262 0.00345611 0.00174217)
(-0.0424882 0.00399751 -0.00484545)
(-0.0313148 0.00405711 -0.0106611)
(-0.0143707 0.00306753 -0.0116795)
(-0.00241496 0.000587403 -0.00437856)
(-0.000765383 0.000918178 0.00301417)
(-0.00445086 0.000979442 0.00579213)
(-0.0103575 0.000912423 0.00643514)
(-0.0159026 0.000909107 0.00593319)
(-0.0201311 0.00101585 0.00460326)
(-0.0220186 0.00123165 0.00242464)
(-0.0205523 0.00148222 -0.000480496)
(-0.0151997 0.00153701 -0.00335657)
(-0.00677871 0.00112765 -0.00443687)
(-0.000999448 2.5801e-05 -0.0018703)
(-0.00121009 -0.0014694 0.0083176)
(-0.00628098 -0.00168076 0.0144432)
(-0.0140114 -0.00159506 0.0155729)
(-0.0212507 -0.00151014 0.0141448)
(-0.0270477 -0.00152421 0.010874)
(-0.0302332 -0.00167762 0.00571991)
(-0.0293315 -0.00191215 -0.00113513)
(-0.023009 -0.0019633 -0.00820237)
(-0.0114566 -0.00141852 -0.0116239)
(-0.00222508 0.000138414 -0.00647657)
(-0.0032739 -0.00362999 0.0136314)
(-0.0152303 -0.00450024 0.0260843)
(-0.0324769 -0.00435563 0.0282684)
(-0.0481364 -0.00412261 0.0244076)
(-0.0599775 -0.00410989 0.0161847)
(-0.0657322 -0.00439571 0.00393823)
(-0.0627426 -0.004846 -0.0112722)
(-0.048781 -0.00485918 -0.0254034)
(-0.0246887 -0.00362829 -0.0295422)
(-0.00507087 -0.000348973 -0.0141011)
(-0.00439691 -0.0039885 0.0146263)
(-0.0202171 -0.00538067 0.0293614)
(-0.0427483 -0.00529907 0.0317911)
(-0.0628453 -0.0049852 0.0264247)
(-0.0776314 -0.00487325 0.0153097)
(-0.0843724 -0.00505078 -0.000961032)
(-0.0798718 -0.00534095 -0.0206338)
(-0.0615255 -0.00523845 -0.0380146)
(-0.030751 -0.00406554 -0.0411895)
(-0.00611053 -0.00109439 -0.0184975)
(-0.00483878 -0.00281688 0.0144036)
(-0.0224237 -0.00398725 0.029731)
(-0.0474813 -0.00395843 0.0321863)
(-0.0696625 -0.00369672 0.0261443)
(-0.0857993 -0.00355654 0.0137357)
(-0.092902 -0.0036103 -0.00432654)
(-0.0875431 -0.00369911 -0.0260649)
(-0.0670101 -0.00357926 -0.0448092)
(-0.0330271 -0.00284502 -0.0471737)
(-0.00630259 -0.000983764 -0.020626)
(-0.0049578 -0.000994309 0.0141201)
(-0.0231577 -0.00143876 0.029537)
(-0.0491628 -0.00143311 0.0319996)
(-0.0721299 -0.00133186 0.0257519)
(-0.0887773 -0.00126822 0.012917)
(-0.0960079 -0.00126923 -0.00576915)
(-0.0903036 -0.00128223 -0.0282103)
(-0.0689204 -0.00123399 -0.0474245)
(-0.0337163 -0.000995335 -0.049445)
(-0.00628964 -0.000383027 -0.0214115)
(-0.0049578 0.000994329 0.0141201)
(-0.0231577 0.00143876 0.029537)
(-0.0491628 0.00143311 0.0319996)
(-0.0721299 0.00133186 0.0257519)
(-0.0887773 0.00126822 0.012917)
(-0.0960079 0.00126923 -0.00576915)
(-0.0903036 0.00128224 -0.0282103)
(-0.0689204 0.00123399 -0.0474245)
(-0.0337163 0.000995338 -0.0494449)
(-0.00628964 0.000383028 -0.0214115)
(-0.00483877 0.0028169 0.0144036)
(-0.0224237 0.00398725 0.029731)
(-0.0474813 0.00395843 0.0321863)
(-0.0696625 0.00369673 0.0261443)
(-0.0857992 0.00355654 0.0137357)
(-0.092902 0.00361031 -0.00432654)
(-0.0875431 0.00369911 -0.0260649)
(-0.0670101 0.00357926 -0.0448092)
(-0.0330271 0.00284503 -0.0471737)
(-0.00630259 0.000983766 -0.020626)
(-0.0043969 0.00398851 0.0146263)
(-0.0202171 0.00538066 0.0293614)
(-0.0427483 0.00529906 0.0317911)
(-0.0628453 0.0049852 0.0264247)
(-0.0776314 0.00487326 0.0153097)
(-0.0843724 0.00505078 -0.000961039)
(-0.0798718 0.00534096 -0.0206338)
(-0.0615255 0.00523846 -0.0380146)
(-0.030751 0.00406554 -0.0411895)
(-0.00611053 0.00109439 -0.0184975)
(-0.00327389 0.00362999 0.0136314)
(-0.0152303 0.00450022 0.0260843)
(-0.0324769 0.00435562 0.0282684)
(-0.0481364 0.00412262 0.0244076)
(-0.0599775 0.0041099 0.0161847)
(-0.0657322 0.00439571 0.00393823)
(-0.0627426 0.004846 -0.0112722)
(-0.048781 0.00485918 -0.0254034)
(-0.0246887 0.00362829 -0.0295422)
(-0.00507087 0.000348971 -0.0141011)
(-0.00121008 0.00146939 0.00831759)
(-0.00628098 0.00168074 0.0144432)
(-0.0140114 0.00159506 0.0155729)
(-0.0212507 0.00151014 0.0141448)
(-0.0270477 0.00152422 0.010874)
(-0.0302332 0.00167762 0.00571991)
(-0.0293315 0.00191215 -0.00113513)
(-0.023009 0.0019633 -0.00820237)
(-0.0114566 0.00141851 -0.0116239)
(-0.00222508 -0.000138416 -0.00647656)
(-0.00169283 -0.0020588 0.0154681)
(-0.00810163 -0.00238762 0.0256782)
(-0.0174882 -0.00222799 0.0272491)
(-0.0263767 -0.00199631 0.0247921)
(-0.0341273 -0.00184662 0.0195289)
(-0.039615 -0.00187477 0.0111322)
(-0.0407812 -0.00207478 -0.000685388)
(-0.0347517 -0.00223788 -0.0140106)
(-0.0199009 -0.00176305 -0.0222774)
(-0.004948 0.000140524 -0.0147087)
(-0.00453863 -0.00500032 0.0252918)
(-0.0199885 -0.00620391 0.0458974)
(-0.0415708 -0.00583729 0.0488887)
(-0.0613391 -0.00515503 0.0422935)
(-0.077465 -0.00460883 0.0288975)
(-0.0875963 -0.00440908 0.00871983)
(-0.0879008 -0.00453512 -0.0175876)
(-0.0734092 -0.00467918 -0.0444465)
(-0.0419509 -0.0038141 -0.0562516)
(-0.0104014 -0.000302443 -0.031329)
(-0.0061015 -0.00538357 0.0275958)
(-0.0267049 -0.00719433 0.0519422)
(-0.0551932 -0.00681366 0.0551933)
(-0.0807979 -0.00588335 0.046092)
(-0.10105 -0.00499607 0.0280112)
(-0.11298 -0.00437014 0.00124735)
(-0.111994 -0.00414567 -0.032652)
(-0.0923283 -0.00410716 -0.0658065)
(-0.0520568 -0.00356782 -0.0773743)
(-0.0125311 -0.000968735 -0.0404425)
(-0.00671948 -0.00373926 0.0276868)
(-0.0296722 -0.00521735 0.0530678)
(-0.061449 -0.00495079 0.0563259)
(-0.0897578 -0.00419886 0.0461332)
(-0.11182 -0.00343036 0.0259973)
(-0.124498 -0.00280961 -0.00368862)
(-0.122747 -0.00250027 -0.04091)
(-0.100414 -0.00242108 -0.076699)
(-0.0560102 -0.00222042 -0.0877121)
(-0.0131598 -0.000832183 -0.0447171)
(-0.00688484 -0.00130705 0.0274532)
(-0.0306438 -0.00186081 0.0530383)
(-0.0636352 -0.00176658 0.0563126)
(-0.0929507 -0.00148391 0.0458094)
(-0.115702 -0.00119173 0.0250442)
(-0.128634 -0.000957803 -0.00556582)
(-0.126559 -0.000804859 -0.0439446)
(-0.103238 -0.000768632 -0.0806683)
(-0.0573104 -0.000730213 -0.091472)
(-0.0133104 -0.000315731 -0.0462552)
(-0.00688484 0.00130707 0.0274532)
(-0.0306438 0.00186081 0.0530383)
(-0.0636352 0.00176657 0.0563126)
(-0.0929507 0.00148391 0.0458094)
(-0.115702 0.00119173 0.0250442)
(-0.128634 0.000957803 -0.00556582)
(-0.126559 0.00080486 -0.0439446)
(-0.103238 0.000768634 -0.0806683)
(-0.0573104 0.000730217 -0.091472)
(-0.0133104 0.000315734 -0.0462552)
(-0.00671948 0.00373928 0.0276868)
(-0.0296722 0.00521735 0.0530679)
(-0.0614489 0.00495078 0.0563259)
(-0.0897578 0.00419886 0.0461332)
(-0.11182 0.00343036 0.0259973)
(-0.124498 0.00280961 -0.00368863)
(-0.122747 0.00250027 -0.04091)
(-0.100414 0.00242109 -0.076699)
(-0.0560102 0.00222042 -0.0877121)
(-0.0131598 0.000832186 -0.0447171)
(-0.00610149 0.00538358 0.0275958)
(-0.0267049 0.00719433 0.0519422)
(-0.0551932 0.00681365 0.0551933)
(-0.0807979 0.00588335 0.046092)
(-0.10105 0.00499607 0.0280112)
(-0.11298 0.00437014 0.00124735)
(-0.111994 0.00414568 -0.032652)
(-0.0923283 0.00410716 -0.0658065)
(-0.0520568 0.00356782 -0.0773743)
(-0.0125311 0.000968736 -0.0404425)
(-0.00453862 0.00500032 0.0252918)
(-0.0199885 0.0062039 0.0458974)
(-0.0415708 0.00583729 0.0488888)
(-0.0613391 0.00515503 0.0422934)
(-0.077465 0.00460884 0.0288975)
(-0.0875963 0.00440908 0.00871983)
(-0.0879008 0.00453512 -0.0175876)
(-0.0734092 0.00467918 -0.0444465)
(-0.0419509 0.0038141 -0.0562516)
(-0.0104014 0.000302444 -0.0313289)
(-0.00169283 0.0020588 0.0154681)
(-0.00810163 0.00238762 0.0256782)
(-0.0174882 0.00222799 0.0272491)
(-0.0263767 0.00199631 0.0247921)
(-0.0341273 0.00184662 0.0195289)
(-0.0396151 0.00187477 0.0111322)
(-0.0407812 0.00207478 -0.000685385)
(-0.0347517 0.00223788 -0.0140106)
(-0.0199009 0.00176305 -0.0222774)
(-0.00494799 -0.000140524 -0.0147087)
(-0.00250773 -0.00272916 0.0249529)
(-0.0105041 -0.00310928 0.0397259)
(-0.0213248 -0.0027168 0.0414333)
(-0.0316135 -0.00210234 0.0378243)
(-0.0415265 -0.00147601 0.0307049)
(-0.0504309 -0.00100103 0.0190413)
(-0.0556867 -0.000849497 0.00123042)
(-0.0522407 -0.00122386 -0.0212982)
(-0.0350763 -0.00142098 -0.0388029)
(-0.0108201 -0.000101702 -0.0302523)
(-0.00629876 -0.00651533 0.0404726)
(-0.025608 -0.00789458 0.0703999)
(-0.051236 -0.00690134 0.0739151)
(-0.0747713 -0.00513058 0.0644954)
(-0.0955268 -0.00316577 0.0461312)
(-0.111642 -0.00140275 0.0176901)
(-0.118177 -0.00031917 -0.0221925)
(-0.106623 -0.000757733 -0.0678319)
(-0.0699351 -0.00187479 -0.0958011)
(-0.020848 -0.000548305 -0.0628042)
(-0.00830033 -0.00688124 0.0444142)
(-0.0339955 -0.00894165 0.0798314)
(-0.0680548 -0.00779496 0.0837719)
(-0.0987073 -0.00549113 0.071066)
(-0.124638 -0.00280732 0.0464907)
(-0.143185 -0.000251997 0.00902403)
(-0.148502 0.00154469 -0.0420517)
(-0.131162 0.0013003 -0.0982694)
(-0.0845523 -0.0006105 -0.12875)
(-0.0246032 -0.000843973 -0.0795063)
(-0.00905887 -0.00470977 0.0449476)
(-0.0375966 -0.00637542 0.0819683)
(-0.0756012 -0.00553813 0.086032)
(-0.109497 -0.00375542 0.0720348)
(-0.137658 -0.00164339 0.0449253)
(-0.156963 0.000398319 0.00368572)
(-0.161276 0.00180009 -0.0519795)
(-0.141009 0.00162929 -0.112529)
(-0.090117 5.40954e-05 -0.143714)
(-0.0259127 -0.000603393 -0.0868883)
(-0.00924528 -0.00163239 0.0448212)
(-0.0387194 -0.00225278 0.0822147)
(-0.0781347 -0.00195234 0.0863787)
(-0.113186 -0.001296 0.0720863)
(-0.142126 -0.000510502 0.0442899)
(-0.161749 0.000260783 0.00193225)
(-0.165734 0.000748409 -0.0552635)
(-0.14441 0.000677982 -0.117357)
(-0.092044 9.26961e-05 -0.148891)
(-0.0263587 -0.000206811 -0.0894611)
(-0.00924528 0.0016324 0.0448212)
(-0.0387194 0.00225278 0.0822147)
(-0.0781347 0.00195234 0.0863787)
(-0.113186 0.00129599 0.0720863)
(-0.142126 0.000510495 0.0442899)
(-0.161749 -0.000260789 0.00193225)
(-0.165734 -0.00074841 -0.0552635)
(-0.14441 -0.00067798 -0.117357)
(-0.092044 -9.2689e-05 -0.148891)
(-0.0263587 0.000206815 -0.0894611)
(-0.00905887 0.00470978 0.0449476)
(-0.0375966 0.00637542 0.0819683)
(-0.0756012 0.00553812 0.086032)
(-0.109497 0.00375541 0.0720348)
(-0.137658 0.00164339 0.0449253)
(-0.156963 -0.000398322 0.00368572)
(-0.161276 -0.00180009 -0.0519794)
(-0.141009 -0.00162929 -0.112529)
(-0.090117 -5.40887e-05 -0.143714)
(-0.0259127 0.000603397 -0.0868883)
(-0.00830033 0.00688125 0.0444142)
(-0.0339955 0.00894165 0.0798314)
(-0.0680547 0.00779496 0.0837719)
(-0.0987073 0.00549113 0.071066)
(-0.124638 0.00280732 0.0464907)
(-0.143185 0.000251997 0.00902403)
(-0.148502 -0.00154469 -0.0420517)
(-0.131162 -0.00130029 -0.0982694)
(-0.0845523 0.000610504 -0.12875)
(-0.0246032 0.000843975 -0.0795063)
(-0.00629876 0.00651533 0.0404726)
(-0.025608 0.00789458 0.0703999)
(-0.051236 0.00690134 0.0739151)
(-0.0747713 0.00513058 0.0644954)
(-0.0955268 0.00316577 0.0461312)
(-0.111642 0.00140275 0.0176901)
(-0.118177 0.000319173 -0.0221925)
(-0.106623 0.000757737 -0.0678319)
(-0.0699351 0.00187479 -0.0958011)
(-0.020848 0.000548308 -0.0628042)
(-0.00250773 0.00272916 0.0249529)
(-0.0105041 0.00310928 0.0397259)
(-0.0213248 0.0027168 0.0414333)
(-0.0316135 0.00210234 0.0378243)
(-0.0415265 0.00147601 0.0307049)
(-0.0504309 0.00100103 0.0190413)
(-0.0556867 0.000849497 0.00123043)
(-0.0522407 0.00122386 -0.0212982)
(-0.0350763 0.00142098 -0.0388028)
(-0.0108201 0.000101705 -0.0302523)
(-0.0041951 -0.00352052 0.0377615)
(-0.0142517 -0.0037821 0.0565032)
(-0.0255111 -0.0027955 0.0571131)
(-0.0358322 -0.0012772 0.0516749)
(-0.0469174 0.000527206 0.042602)
(-0.0594608 0.00238797 0.0277594)
(-0.0709836 0.00364727 0.00330131)
(-0.0739492 0.00313532 -0.0314856)
(-0.0582021 0.00104782 -0.0641487)
(-0.0212232 -0.00047974 -0.0591374)
(-0.0092425 -0.00820719 0.0603203)
(-0.0328714 -0.00938481 0.0994407)
(-0.060831 -0.00692954 0.10216)
(-0.0854346 -0.0028095 0.0894374)
(-0.108196 0.00227412 0.0665021)
(-0.129046 0.00760794 0.030282)
(-0.143248 0.0113976 -0.0242421)
(-0.139318 0.0104558 -0.0941555)
(-0.104812 0.004383 -0.149799)
(-0.0364637 -0.00118181 -0.118037)
(-0.0116353 -0.00845978 0.0661177)
(-0.0426162 -0.0104125 0.112771)
(-0.0800429 -0.0076464 0.116414)
(-0.112196 -0.0026492 0.100152)
(-0.139932 0.00358204 0.0701744)
(-0.162343 0.00999543 0.0232446)
(-0.17402 0.0143688 -0.0454855)
(-0.163366 0.0131187 -0.130546)
(-0.120135 0.00578252 -0.193912)
(-0.0411061 -0.000991435 -0.145489)
(-0.0124498 -0.00569546 0.0671281)
(-0.0465288 -0.00732081 0.116079)
(-0.0882122 -0.00535481 0.120208)
(-0.123623 -0.00167522 0.102843)
(-0.153238 0.00290679 0.070381)
(-0.175713 0.00753693 0.0194556)
(-0.185561 0.0105306 -0.0548164)
(-0.171658 0.00945125 -0.145917)
(-0.125388 0.00418753 -0.212316)
(-0.04284 -0.00052041 -0.156882)
(-0.0126092 -0.00195618 0.0671193)
(-0.0476274 -0.00256746 0.116656)
(-0.0907472 -0.00187405 0.12108)
(-0.127258 -0.00055645 0.103605)
(-0.157505 0.00107891 0.0706044)
(-0.18003 0.00271343 0.0185706)
(-0.189332 0.00372751 -0.0574655)
(-0.174468 0.0033091 -0.150788)
(-0.12738 0.00147003 -0.218502)
(-0.0435737 -0.000142017 -0.16082)
(-0.0126092 0.00195618 0.0671193)
(-0.0476274 0.00256746 0.116656)
(-0.0907472 0.00187404 0.12108)
(-0.127258 0.00055644 0.103605)
(-0.157505 -0.00107892 0.0706044)
(-0.18003 -0.00271344 0.0185706)
(-0.189332 -0.00372751 -0.0574654)
(-0.174468 -0.0033091 -0.150788)
(-0.12738 -0.00147003 -0.218502)
(-0.0435737 0.000142023 -0.16082)
(-0.0124498 0.00569546 0.0671281)
(-0.0465288 0.0073208 0.116079)
(-0.0882122 0.0053548 0.120208)
(-0.123623 0.00167521 0.102843)
(-0.153238 -0.0029068 0.070381)
(-0.175713 -0.00753694 0.0194556)
(-0.185561 -0.0105306 -0.0548164)
(-0.171658 -0.00945124 -0.145917)
(-0.125388 -0.00418753 -0.212316)
(-0.04284 0.000520415 -0.156882)
(-0.0116353 0.00845978 0.0661177)
(-0.0426162 0.0104124 0.112771)
(-0.0800429 0.0076464 0.116414)
(-0.112196 0.00264919 0.100152)
(-0.139932 -0.00358204 0.0701744)
(-0.162343 -0.00999543 0.0232446)
(-0.17402 -0.0143688 -0.0454855)
(-0.163366 -0.0131187 -0.130546)
(-0.120135 -0.00578252 -0.193912)
(-0.0411061 0.000991439 -0.145489)
(-0.0092425 0.00820719 0.0603203)
(-0.0328714 0.00938481 0.0994407)
(-0.0608309 0.00692953 0.10216)
(-0.0854346 0.00280949 0.0894374)
(-0.108196 -0.00227412 0.0665021)
(-0.129046 -0.00760794 0.030282)
(-0.143248 -0.0113976 -0.0242421)
(-0.139318 -0.0104558 -0.0941555)
(-0.104812 -0.004383 -0.149799)
(-0.0364637 0.00118181 -0.118037)
(-0.00419511 0.00352053 0.0377615)
(-0.0142517 0.0037821 0.0565032)
(-0.0255111 0.0027955 0.0571131)
(-0.0358322 0.0012772 0.0516749)
(-0.0469174 -0.000527206 0.042602)
(-0.0594608 -0.00238797 0.0277594)
(-0.0709836 -0.00364727 0.00330131)
(-0.0739492 -0.00313532 -0.0314856)
(-0.0582021 -0.00104782 -0.0641487)
(-0.0212232 0.000479741 -0.0591374)
(-0.00813272 -0.00458142 0.0564053)
(-0.0210257 -0.00448467 0.0750936)
(-0.0294261 -0.0023554 0.0713952)
(-0.0359065 0.00074082 0.062175)
(-0.0446228 0.0044879 0.050418)
(-0.0585789 0.00863219 0.032677)
(-0.0769754 0.0119231 0.00241737)
(-0.0906179 0.0115259 -0.0460767)
(-0.0844451 0.00621804 -0.09974)
(-0.034777 -0.00104938 -0.109553)
(-0.0150582 -0.0102929 0.0874675)
(-0.043263 -0.0107498 0.131466)
(-0.0678158 -0.00568848 0.129371)
(-0.0856719 0.0021639 0.1115)
(-0.102049 0.0118661 0.0842878)
(-0.12031 0.0223437 0.0426753)
(-0.138741 0.0300911 -0.0227413)
(-0.145604 0.0283339 -0.117151)
(-0.127346 0.0142048 -0.211134)
(-0.0491322 -0.00315964 -0.205314)
(-0.0177272 -0.0102437 0.0949743)
(-0.0535034 -0.0116636 0.148688)
(-0.0873327 -0.00629831 0.148312)
(-0.111228 0.00255682 0.127407)
(-0.12978 0.0135031 0.0935057)
(-0.145853 0.0247778 0.0412369)
(-0.158102 0.0321533 -0.038971)
(-0.15643 0.0288908 -0.151383)
(-0.133474 0.0133575 -0.259893)
(-0.0508863 -0.0027656 -0.243949)
(-0.0184553 -0.00674833 0.0962421)
(-0.0570963 -0.00809454 0.152957)
(-0.0948251 -0.00444072 0.153656)
(-0.121097 0.00178832 0.132274)
(-0.140072 0.0094648 0.0964973)
(-0.154389 0.0171353 0.0406865)
(-0.163242 0.0217171 -0.0448936)
(-0.158005 0.0188962 -0.164366)
(-0.134756 0.00837857 -0.278791)
(-0.0518511 -0.00152268 -0.2592)
(-0.01852 -0.00229171 0.0962469)
(-0.0578852 -0.00282095 0.153733)
(-0.0967877 -0.00156124 0.154997)
(-0.123772 0.00061673 0.133834)
(-0.142849 0.00328805 0.0978461)
(-0.156633 0.00591575 0.04116)
(-0.164583 0.00740633 -0.0461943)
(-0.15861 0.00634198 -0.168431)
(-0.135802 0.00277237 -0.285294)
(-0.0526018 -0.000436144 -0.264619)
(-0.01852 0.00229172 0.0962469)
(-0.0578852 0.00282094 0.153733)
(-0.0967877 0.00156123 0.154997)
(-0.123772 -0.000616743 0.133834)
(-0.142849 -0.00328806 0.0978461)
(-0.156633 -0.00591576 0.04116)
(-0.164583 -0.00740633 -0.0461943)
(-0.15861 -0.00634197 -0.168431)
(-0.135802 -0.00277236 -0.285294)
(-0.0526018 0.000436153 -0.264619)
(-0.0184553 0.00674833 0.0962421)
(-0.0570963 0.00809454 0.152957)
(-0.0948251 0.00444071 0.153656)
(-0.121097 -0.00178833 0.132274)
(-0.140072 -0.00946481 0.0964973)
(-0.154389 -0.0171353 0.0406865)
(-0.163242 -0.0217171 -0.0448936)
(-0.158005 -0.0188962 -0.164366)
(-0.134756 -0.00837856 -0.278791)
(-0.0518511 0.00152268 -0.2592)
(-0.0177272 0.0102437 0.0949743)
(-0.0535034 0.0116636 0.148688)
(-0.0873327 0.0062983 0.148312)
(-0.111228 -0.00255683 0.127407)
(-0.12978 -0.0135031 0.0935057)
(-0.145853 -0.0247778 0.0412369)
(-0.158102 -0.0321533 -0.038971)
(-0.15643 -0.0288908 -0.151383)
(-0.133474 -0.0133575 -0.259893)
(-0.0508863 0.0027656 -0.243949)
(-0.0150582 0.0102929 0.0874675)
(-0.043263 0.0107498 0.131466)
(-0.0678158 0.00568848 0.129371)
(-0.0856719 -0.0021639 0.1115)
(-0.102049 -0.0118661 0.0842878)
(-0.12031 -0.0223437 0.0426753)
(-0.138741 -0.0300911 -0.0227413)
(-0.145604 -0.0283339 -0.117151)
(-0.127346 -0.0142048 -0.211134)
(-0.0491322 0.00315964 -0.205314)
(-0.00813272 0.00458142 0.0564053)
(-0.0210257 0.00448467 0.0750936)
(-0.0294261 0.0023554 0.0713952)
(-0.0359065 -0.000740821 0.062175)
(-0.0446228 -0.00448789 0.050418)
(-0.0585789 -0.00863219 0.032677)
(-0.0769754 -0.0119231 0.00241738)
(-0.0906179 -0.0115259 -0.0460767)
(-0.0844451 -0.00621804 -0.09974)
(-0.034777 0.00104938 -0.109553)
(-0.0173391 -0.00640458 0.0817781)
(-0.0329098 -0.00593165 0.0910705)
(-0.0278246 -0.00242375 0.0786809)
(-0.0218506 0.00251811 0.0628963)
(-0.0208081 0.00821283 0.0477229)
(-0.0297144 0.0146357 0.0282725)
(-0.0517747 0.0203242 -0.00496418)
(-0.0779474 0.0203683 -0.0646626)
(-0.0955964 0.0108132 -0.14222)
(-0.0412382 -0.004707 -0.188007)
(-0.0280015 -0.0136231 0.120319)
(-0.0599681 -0.0134359 0.159202)
(-0.0636741 -0.005587 0.146828)
(-0.0578825 0.00589627 0.120653)
(-0.0522658 0.0194462 0.0898677)
(-0.0532851 0.0341476 0.0483739)
(-0.0660688 0.0459947 -0.0173306)
(-0.0817417 0.0441622 -0.125658)
(-0.101472 0.0209174 -0.259486)
(-0.0373198 -0.0110217 -0.314643)
(-0.0311658 -0.0129134 0.12841)
(-0.0703068 -0.0141308 0.17966)
(-0.0808667 -0.00639428 0.170105)
(-0.0767072 0.00552693 0.141729)
(-0.0678697 0.0197594 0.105738)
(-0.0606098 0.0343849 0.0557694)
(-0.0619484 0.04459 -0.0217412)
(-0.0661268 0.0401571 -0.147178)
(-0.0870139 0.0165003 -0.301035)
(-0.0304476 -0.00903736 -0.355718)
(-0.0317692 -0.00825513 0.129509)
(-0.0731118 -0.00961378 0.184488)
(-0.0863891 -0.00460384 0.176745)
(-0.0828991 0.00338333 0.148683)
(-0.072533 0.0129689 0.111739)
(-0.0613739 0.022549 0.0592747)
(-0.0577457 0.0286257 -0.0223877)
(-0.0579979 0.0248107 -0.1546)
(-0.0818763 0.00963811 -0.316323)
(-0.0293983 -0.00496749 -0.37109)
(-0.0317087 -0.00275955 0.129402)
(-0.0733773 -0.0033184 0.185247)
(-0.0872912 -0.00163659 0.178334)
(-0.0839215 0.00108981 0.150813)
(-0.0730642 0.00436052 0.113993)
(-0.060767 0.00758961 0.0609655)
(-0.0559487 0.00954199 -0.0221902)
(-0.0557574 0.00813228 -0.157209)
(-0.0815061 0.00311882 -0.321983)
(-0.0299113 -0.00146701 -0.376756)
(-0.0317087 0.00275955 0.129402)
(-0.0733773 0.00331839 0.185247)
(-0.0872912 0.00163657 0.178334)
(-0.0839215 -0.00108982 0.150813)
(-0.0730642 -0.00436053 0.113993)
(-0.060767 -0.00758961 0.0609655)
(-0.0559487 -0.00954198 -0.0221902)
(-0.0557574 -0.00813227 -0.157209)
(-0.0815061 -0.00311882 -0.321983)
(-0.0299113 0.00146702 -0.376756)
(-0.0317692 0.00825513 0.129509)
(-0.0731118 0.00961377 0.184488)
(-0.0863891 0.00460382 0.176745)
(-0.0828991 -0.00338335 0.148683)
(-0.072533 -0.0129689 0.111739)
(-0.0613739 -0.0225491 0.0592747)
(-0.0577457 -0.0286257 -0.0223877)
(-0.0579979 -0.0248107 -0.1546)
(-0.0818763 -0.0096381 -0.316323)
(-0.0293983 0.0049675 -0.37109)
(-0.0311658 0.0129134 0.12841)
(-0.0703068 0.0141308 0.17966)
(-0.0808667 0.00639427 0.170105)
(-0.0767072 -0.00552694 0.141729)
(-0.0678697 -0.0197594 0.105738)
(-0.0606098 -0.0343849 0.0557694)
(-0.0619484 -0.04459 -0.0217412)
(-0.0661268 -0.0401571 -0.147178)
(-0.0870139 -0.0165003 -0.301035)
(-0.0304476 0.00903737 -0.355718)
(-0.0280015 0.0136231 0.120319)
(-0.0599681 0.0134359 0.159202)
(-0.0636741 0.005587 0.146828)
(-0.0578825 -0.00589627 0.120653)
(-0.0522658 -0.0194462 0.0898677)
(-0.0532851 -0.0341476 0.0483739)
(-0.0660688 -0.0459947 -0.0173306)
(-0.0817417 -0.0441622 -0.125658)
(-0.101472 -0.0209174 -0.259486)
(-0.0373198 0.0110217 -0.314643)
(-0.0173391 0.00640459 0.0817781)
(-0.0329098 0.00593165 0.0910705)
(-0.0278246 0.00242375 0.0786809)
(-0.0218506 -0.00251811 0.0628963)
(-0.0208081 -0.00821283 0.0477229)
(-0.0297144 -0.0146357 0.0282725)
(-0.0517747 -0.0203242 -0.00496418)
(-0.0779474 -0.0203683 -0.0646626)
(-0.0955964 -0.0108132 -0.14222)
(-0.0412382 0.004707 -0.188007)
(-0.0242041 -0.0108172 0.151751)
(-0.0228932 -0.0102985 0.0992236)
(0.0210729 -0.00575657 0.0636028)
(0.0515854 0.000355585 0.0425878)
(0.0709097 0.00669058 0.0271076)
(0.0744853 0.0137472 0.0105353)
(0.0554414 0.020915 -0.0169139)
(0.0215981 0.0211579 -0.073549)
(-0.0432503 0.00725334 -0.168376)
(-0.00707707 -0.0159407 -0.255739)
(-0.0436285 -0.02125 0.21099)
(-0.0472991 -0.0218782 0.167727)
(0.0110259 -0.0130443 0.123693)
(0.0614862 -0.000626605 0.0915972)
(0.102744 0.0131841 0.0639313)
(0.130347 0.0281534 0.0330169)
(0.130891 0.0427212 -0.013805)
(0.115933 0.0432029 -0.103044)
(0.0308925 0.0143593 -0.2511)
(0.0405417 -0.0280184 -0.365268)
(-0.0488542 -0.0179815 0.220527)
(-0.0568 -0.0211457 0.185632)
(0.000618756 -0.0137847 0.143649)
(0.0553081 -0.00245095 0.110441)
(0.10467 0.0110458 0.0797168)
(0.144874 0.0252432 0.0437659)
(0.158346 0.0376035 -0.00962712)
(0.157056 0.0361457 -0.107951)
(0.0682104 0.0100285 -0.271885)
(0.0588309 -0.0191099 -0.391988)
(-0.0494225 -0.0108204 0.221029)
(-0.0583398 -0.0136993 0.1886)
(-0.00183162 -0.00938769 0.148313)
(0.0536541 -0.00228233 0.115901)
(0.105332 0.00635473 0.0850193)
(0.149837 0.015424 0.0476701)
(0.167393 0.0228414 -0.00826701)
(0.169796 0.0214337 -0.110103)
(0.0771671 0.00625992 -0.279502)
(0.0616172 -0.00957671 -0.401337)
(-0.0491469 -0.00351703 0.22054)
(-0.0578799 -0.00462008 0.188544)
(-0.00143516 -0.00324142 0.148951)
(0.0543032 -0.000895483 0.117123)
(0.106544 0.00198685 0.0865247)
(0.152103 0.0050155 0.0489017)
(0.170375 0.00743028 -0.00800337)
(0.17287 0.00693787 -0.111401)