/*--------------------------------*- C++ -*----------------------------------*\
  =========                 |
  \\      /  F ield         | OpenFOAM: The Open Source CFD Toolbox
   \\    /   O peration     | Website:  https://openfoam.org
    \\  /    A nd           | Version:  9
     \\/     M anipulation  |
\*---------------------------------------------------------------------------*/
FoamFile
{
    format      ascii;
    class       volScalarField;
    location    "0.37";
    object      p;
}
// * * * * * * * * * * * * * * * * * * * * * * * * * * * * * * * * * * * * * //

dimensions      [0 2 -2 0 0 0 0];

internalField   nonuniform List<scalar> 
1000
(
2.73076e-07
-0.000399402
7.67427e-05
0.00132942
0.00336444
0.00602018
0.00886159
0.0111944
0.0123445
0.0116041
0.000173713
-0.000572806
-0.000178712
0.0011187
0.00330809
0.00621257
0.00934002
0.011862
0.0129688
0.0117312
0.000763028
-0.000203792
0.000158878
0.0015304
0.00390554
0.00709414
0.0105348
0.0132079
0.0141536
0.012303
0.00136205
0.000260845
0.000608645
0.00204438
0.00457353
0.00800282
0.0116576
0.0144124
0.015203
0.0128999
0.00172557
0.00056541
0.000908527
0.00237841
0.00498664
0.00853449
0.012303
0.0150922
0.0157956
0.013265
0.00172559
0.000565429
0.000908543
0.00237842
0.00498664
0.00853449
0.012303
0.0150922
0.0157956
0.013265
0.00136213
0.000260915
0.0006087
0.00204442
0.00457355
0.00800282
0.0116575
0.0144124
0.015203
0.0128999
0.000763169
-0.000203648
0.000158996
0.00153048
0.00390559
0.00709415
0.0105348
0.0132078
0.0141535
0.0123029
0.000173924
-0.00057258
-0.000178526
0.00111883
0.00330815
0.00621259
0.00933998
0.0118619
0.0129687
0.0117312
6.42106e-07
-0.000399107
7.69547e-05
0.00132956
0.00336452
0.0060202
0.00886154
0.0111943
0.0123444
0.011604
0.000300953
-9.23789e-05
0.000397384
0.00155158
0.00339473
0.00582496
0.00847963
0.0107569
0.0119355
0.0109639
0.000805566
1.71099e-05
0.000444422
0.00158976
0.00345708
0.00595833
0.00873639
0.0111078
0.0122435
0.0106471
0.00175189
0.00064867
0.00103067
0.0021819
0.00410771
0.00672214
0.00969806
0.0121487
0.0131317
0.0108855
0.00257981
0.00126667
0.00161191
0.00276976
0.00475489
0.00749903
0.0106107
0.0131066
0.0139492
0.011249
0.00304976
0.00163501
0.00196053
0.0031215
0.00513847
0.00795471
0.0111378
0.0136525
0.0144177
0.0115011
0.00304978
0.00163503
0.00196054
0.00312151
0.00513847
0.0079547
0.0111377
0.0136525
0.0144177
0.0115011
0.00257987
0.00126672
0.00161195
0.00276979
0.0047549
0.00749901
0.0106106
0.0131065
0.0139492
0.0112489
0.00175202
0.000648776
0.00103076
0.00218195
0.00410774
0.00672213
0.00969801
0.0121487
0.0131316
0.0108854
0.00080576
1.729e-05
0.000444561
0.00158986
0.00345713
0.00595833
0.00873634
0.0111077
0.0122434
0.010647
0.000301225
-9.21473e-05
0.000397554
0.00155169
0.00339478
0.00582496
0.0084796
0.0107569
0.0119354
0.0109637
-0.000961167
-0.00148555
-0.00105162
9.01861e-06
0.00178922
0.00432018
0.00735582
0.010261
0.0120243
0.0108579
-0.000164099
-0.00122855
-0.000862418
0.00018662
0.00198612
0.00460266
0.00779364
0.0108407
0.012539
0.0103071
0.00120634
-0.000307817
-1.90444e-05
0.000985749
0.0027907
0.00551179
0.00888177
0.0120414
0.0135705
0.0103946
0.00235486
0.000540875
0.000761356
0.00172442
0.00353498
0.00633724
0.00984084
0.0130595
0.0144316
0.0106374
0.00298922
0.00102979
0.00121173
0.00215005
0.00396339
0.00681143
0.0103762
0.013615
0.0149006
0.010825
0.00298923
0.0010298
0.00121174
0.00215005
0.0039634
0.00681143
0.0103762
0.0136149
0.0149006
0.010825
0.0023549
0.000540895
0.000761378
0.00172443
0.00353499
0.00633724
0.00984082
0.0130595
0.0144316
0.0106373
0.00120641
-0.000307762
-1.89955e-05
0.000985775
0.00279072
0.00551179
0.00888174
0.0120414
0.0135705
0.0103945
-0.000163991
-0.00122846
-0.00086234
0.000186671
0.00198614
0.00460267
0.00779361
0.0108406
0.0125389
0.010307
-0.000961024
-0.00148542
-0.00105153
9.07103e-06
0.00178925
0.00432019
0.00735582
0.010261
0.0120242
0.0108578
-0.00412302
-0.00476571
-0.00440559
-0.00347522
-0.00176125
0.00101424
0.00486891
0.00921024
0.0125139
0.0116729
-0.00300961
-0.00434628
-0.00406109
-0.00313349
-0.00138035
0.00152724
0.0056198
0.0102648
0.0135094
0.0110619
-0.00116354
-0.00309682
-0.00295277
-0.00216521
-0.000517432
0.00242053
0.00666678
0.011531
0.0146853
0.0110939
0.000355786
-0.00197557
-0.00195947
-0.00130581
0.00023607
0.00314258
0.0075038
0.0124873
0.0155366
0.0112626
0.00118354
-0.00134051
-0.00139712
-0.000821051
0.000661495
0.00355551
0.00795105
0.0129753
0.0159626
0.0113972
0.00118354
-0.0013405
-0.00139712
-0.000821051
0.000661496
0.00355551
0.00795105
0.0129753
0.0159626
0.0113972
0.0003558
-0.00197556
-0.00195946
-0.00130581
0.000236074
0.00314258
0.0075038
0.0124873
0.0155366
0.0112626
-0.00116351
-0.0030968
-0.00295275
-0.00216521
-0.000517431
0.00242053
0.00666677
0.0115309
0.0146853
0.0110939
-0.00300956
-0.00434624
-0.00406105
-0.00313346
-0.00138033
0.00152726
0.00561981
0.0102648
0.0135094
0.0110619
-0.00412295
-0.00476564
-0.00440554
-0.00347518
-0.00176122
0.00101427
0.00486893
0.00921024
0.0125139
0.0116728
-0.00987336
-0.0104872
-0.0101477
-0.00939944
-0.0078646
-0.00485732
0.000238466
0.00717167
0.0136931
0.0148009
-0.00843133
-0.00990297
-0.0096682
-0.00895231
-0.00740831
-0.00427485
0.00110907
0.00857854
0.015193
0.0145429
-0.0061238
-0.00835369
-0.00839535
-0.00803643
-0.00688504
-0.00402033
0.00135885
0.00921473
0.0160918
0.0146457
-0.00425532
-0.00698778
-0.00727226
-0.00723301
-0.00642115
-0.00378826
0.00153448
0.0096007
0.0166096
0.0147915
-0.00324964
-0.00622363
-0.0066431
-0.00678096
-0.0061528
-0.00365241
0.0016285
0.00977217
0.0168278
0.0148789
-0.00324964
-0.00622363
-0.0066431
-0.00678096
-0.0061528
-0.00365241
0.0016285
0.00977217
0.0168278
0.0148789
-0.0042553
-0.00698777
-0.00727225
-0.00723301
-0.00642115
-0.00378826
0.00153448
0.0096007
0.0166096
0.0147915
-0.00612378
-0.00835367
-0.00839534
-0.00803644
-0.00688505
-0.00402033
0.00135886
0.00921474
0.0160919
0.0146458
-0.0084313
-0.00990294
-0.00966817
-0.0089523
-0.0074083
-0.00427483
0.0011091
0.00857857
0.015193
0.0145429
-0.00987331
-0.0104871
-0.0101476
-0.00939943
-0.00786457
-0.0048573
0.000238491
0.00717169
0.0136931
0.0148009
-0.0189943
-0.019092
-0.0184845
-0.0178625
-0.016615
-0.0134435
-0.00673558
0.00416198
0.016524
0.0229792
-0.0171963
-0.0183741
-0.0179799
-0.0175348
-0.0165046
-0.0135941
-0.00700602
0.00444228
0.0174361
0.0233514
-0.0144682
-0.0165937
-0.0167204
-0.0170289
-0.0169177
-0.0148866
-0.00878649
0.00314258
0.017121
0.0235053
-0.0123084
-0.0150445
-0.015596
-0.0165172
-0.0171378
-0.0157694
-0.0100333
0.00214917
0.0167149
0.0235462
-0.0111637
-0.0141878
-0.0149666
-0.0162093
-0.0172025
-0.0161701
-0.0106131
0.00166434
0.0164807
0.0235404
-0.0111637
-0.0141878
-0.0149666
-0.0162093
-0.0172025
-0.0161701
-0.010613
0.00166435
0.0164808
0.0235404
-0.0123083
-0.0150444
-0.015596
-0.0165173
-0.0171378
-0.0157694
-0.0100333
0.0021492
0.0167149
0.0235462
-0.0144682
-0.0165936
-0.0167204
-0.0170289
-0.0169177
-0.0148866
-0.00878643
0.00314264
0.0171211
0.0235053
-0.0171962
-0.0183741
-0.0179799
-0.0175348
-0.0165046
-0.0135941
-0.00700595
0.00444234
0.0174362
0.0233515
-0.0189942
-0.0190919
-0.0184845
-0.0178625
-0.016615
-0.0134435
-0.00673551
0.00416205
0.0165241
0.0229793
-0.0328039
-0.030744
-0.0289655
-0.0280309
-0.0269719
-0.0237541
-0.0154096
0.000662557
0.0220538
0.0404686
-0.0304569
-0.0298443
-0.0285664
-0.0281751
-0.0278711
-0.0257616
-0.0186293
-0.00263054
0.0199456
0.040644
-0.0272587
-0.0277906
-0.0273855
-0.0282886
-0.0296299
-0.0293228
-0.0235405
-0.00724592
0.0171316
0.0405541
-0.0248291
-0.0260572
-0.0262905
-0.0281495
-0.0306742
-0.0315728
-0.0266027
-0.0100952
0.015356
0.0404554
-0.023573
-0.025118
-0.0256765
-0.0280086
-0.0310994
-0.0325549
-0.0279415
-0.0113416
0.014572
0.0403864
-0.0235729
-0.025118
-0.0256765
-0.0280086
-0.0310994
-0.0325549
-0.0279415
-0.0113415
0.0145721
0.0403864
-0.024829
-0.0260572
-0.0262905
-0.0281495
-0.0306741
-0.0315728
-0.0266027
-0.0100952
0.015356
0.0404555
-0.0272586
-0.0277906
-0.0273856
-0.0282886
-0.0296298
-0.0293228
-0.0235405
-0.00724584
0.0171317
0.0405542
-0.0304569
-0.0298443
-0.0285664
-0.0281751
-0.027871
-0.0257616
-0.0186292
-0.00263045
0.0199458
0.0406441
-0.0328039
-0.030744
-0.0289655
-0.0280309
-0.0269719
-0.0237541
-0.0154095
0.000662645
0.0220539
0.0404687
-0.0554036
-0.0452412
-0.0402305
-0.0377153
-0.0362249
-0.0327256
-0.0232149
-0.00123217
0.0315948
0.0740962
-0.0518672
-0.0437371
-0.0396789
-0.0384528
-0.0385095
-0.0372045
-0.0305579
-0.0101122
0.0239614
0.0744576
-0.0476848
-0.0408605
-0.0379841
-0.0386527
-0.0410535
-0.0422665
-0.0377841
-0.0173188
0.0191581
0.0756912
-0.0447341
-0.0386249
-0.0365198
-0.0384193
-0.0423642
-0.045104
-0.0417545
-0.0209903
0.0170164
0.0768624
-0.0432782
-0.0374747
-0.0357422
-0.0382173
-0.0428579
-0.0462602
-0.043376
-0.0224354
0.0162692
0.0774135
-0.0432782
-0.0374747
-0.0357422
-0.0382173
-0.0428579
-0.0462602
-0.0433759
-0.0224354
0.0162693
0.0774135
-0.0447341
-0.0386249
-0.0365198
-0.0384193
-0.0423642
-0.045104
-0.0417544
-0.0209903
0.0170164
0.0768624
-0.0476848
-0.0408605
-0.0379841
-0.0386527
-0.0410535
-0.0422664
-0.037784
-0.0173187
0.0191582
0.0756913
-0.0518672
-0.0437372
-0.0396789
-0.0384528
-0.0385095
-0.0372044
-0.0305578
-0.010112
0.0239615
0.0744578
-0.0554036
-0.0452413
-0.0402305
-0.0377153
-0.0362249
-0.0327256
-0.0232148
-0.00123205
0.031595
0.0740964
-0.0874494
-0.0600464
-0.0506723
-0.044537
-0.0413798
-0.0367696
-0.0246108
0.00576793
0.0520282
0.150842
-0.0796746
-0.0563617
-0.0493873
-0.0456709
-0.0447759
-0.0428827
-0.0345134
-0.00515285
0.0453676
0.162195
-0.0733621
-0.0517749
-0.0463791
-0.0450741
-0.0470567
-0.0479027
-0.0417628
-0.0108836
0.0459456
0.170879
-0.0695234
-0.0486447
-0.0441004
-0.0442737
-0.0480216
-0.0504835
-0.0452941
-0.0131187
0.0469505
0.17632
-0.0677887
-0.0471428
-0.0429757
-0.0438122
-0.0483445
-0.0515071
-0.0466697
-0.0139416
0.0474985
0.178661
-0.0677887
-0.0471428
-0.0429757
-0.0438123
-0.0483445
-0.0515071
-0.0466697
-0.0139416
0.0474985
0.178661
-0.0695234
-0.0486448
-0.0441005
-0.0442737
-0.0480216
-0.0504835
-0.045294
-0.0131186
0.0469506
0.17632
-0.0733622
-0.051775
-0.0463791
-0.0450741
-0.0470566
-0.0479027
-0.0417627
-0.0108835
0.0459457
0.170879
-0.0796747
-0.0563618
-0.0493873
-0.0456709
-0.0447758
-0.0428826
-0.0345133
-0.00515271
0.0453678
0.162196
-0.0874495
-0.0600465
-0.0506723
-0.044537
-0.0413797
-0.0367695
-0.0246107
0.00576808
0.0520284
0.150843
-0.198072
-0.0731392
-0.0479881
-0.0390523
-0.034316
-0.0274689
-0.0108481
0.0336932
0.119165
0.324386
-0.185922
-0.0608003
-0.0405529
-0.03589
-0.0346468
-0.03103
-0.0169415
0.0302544
0.129296
0.358626
-0.177289
-0.052297
-0.0342921
-0.0325803
-0.0344469
-0.033279
-0.0202724
0.0299169
0.138252
0.379168
-0.172371
-0.047501
-0.0304414
-0.0303825
-0.0341044
-0.034352
-0.0217941
0.0300159
0.142537
0.388989
-0.170229
-0.0454203
-0.0287258
-0.0293715
-0.0339181
-0.034823
-0.0224593
0.0300157
0.14417
0.392699
-0.170229
-0.0454203
-0.0287258
-0.0293715
-0.0339181
-0.034823
-0.0224593
0.0300157
0.14417
0.392699
-0.172371
-0.047501
-0.0304414
-0.0303826
-0.0341044
-0.034352
-0.0217941
0.030016
0.142537
0.388989
-0.177289
-0.0522971
-0.0342921
-0.0325803
-0.0344468
-0.0332789
-0.0202723
0.029917
0.138252
0.379168
-0.185922
-0.0608004
-0.0405529
-0.03589
-0.0346468
-0.03103
-0.0169414
0.0302545
0.129296
0.358626
-0.198072
-0.0731394
-0.0479882
-0.0390523
-0.0343159
-0.0274688
-0.010848
0.0336933
0.119165
0.324386
)
;

boundaryField
{
    top
    {
        type            zeroGradient;
    }
    others
    {
        type            zeroGradient;
    }
}


// ************************************************************************* //
