/*--------------------------------*- C++ -*----------------------------------*\
  =========                 |
  \\      /  F ield         | OpenFOAM: The Open Source CFD Toolbox
   \\    /   O peration     | Website:  https://openfoam.org
    \\  /    A nd           | Version:  9
     \\/     M anipulation  |
\*---------------------------------------------------------------------------*/
FoamFile
{
    format      ascii;
    class       surfaceScalarField;
    location    "0.37";
    object      phi;
}
// * * * * * * * * * * * * * * * * * * * * * * * * * * * * * * * * * * * * * //

dimensions      [0 3 -1 0 0 0 0];

internalField   nonuniform List<scalar> 
2700
(
-7.55399e-08
-7.91252e-08
1.54657e-07
-3.29572e-07
-7.67531e-08
3.30785e-07
-6.45378e-07
-7.29501e-08
3.88756e-07
-9.40618e-07
-8.88314e-08
3.84071e-07
-1.14027e-06
-1.3013e-07
3.29784e-07
-1.1637e-06
-1.93034e-07
2.16459e-07
-9.52953e-07
-2.58304e-07
4.75605e-08
-5.39139e-07
-2.86416e-07
-1.27399e-07
-1.15323e-07
-2.34377e-07
-1.89438e-07
-7.44612e-08
-4.08622e-08
-1.76748e-07
-1.62013e-07
2.59636e-07
-6.9175e-07
-1.99179e-07
6.37428e-07
-1.31414e-06
-2.06466e-07
7.55902e-07
-1.87711e-06
-2.34383e-07
7.08522e-07
-2.23919e-06
-2.96352e-07
5.28311e-07
-2.25759e-06
-3.85044e-07
2.10405e-07
-1.83461e-06
-4.68886e-07
-2.12399e-07
-1.04253e-06
-4.90394e-07
-5.88106e-07
-2.45843e-07
-3.97951e-07
-6.3311e-07
-1.59422e-07
-1.60883e-07
-2.37048e-07
-1.69044e-07
2.44079e-07
-9.03034e-07
-2.27995e-07
6.94802e-07
-1.69821e-06
-2.43e-07
8.31714e-07
-2.40762e-06
-2.6945e-07
7.44474e-07
-2.85152e-06
-3.23229e-07
4.7078e-07
-2.85228e-06
-3.98774e-07
1.44854e-08
-2.28688e-06
-4.62366e-07
-5.71922e-07
-1.26305e-06
-4.70277e-07
-1.04395e-06
-2.69184e-07
-3.81634e-07
-1.01018e-06
-1.68678e-07
-2.59928e-07
-2.67965e-07
-1.04113e-07
2.03034e-07
-1.01768e-06
-1.46116e-07
6.67837e-07
-1.90989e-06
-1.57372e-07
8.06585e-07
-2.70117e-06
-1.72595e-07
6.9442e-07
-3.18916e-06
-2.01977e-07
3.6674e-07
-3.16733e-06
-2.42106e-07
-1.78499e-07
-2.51008e-06
-2.7512e-07
-8.44494e-07
-1.3477e-06
-2.76168e-07
-1.35649e-06
-2.53976e-07
-2.24623e-07
-1.25074e-06
-1.04198e-07
-3.18456e-07
-2.80656e-07
1.1896e-12
1.76542e-07
-1.067e-06
6.69212e-13
6.40226e-07
-2.00238e-06
4.85944e-13
7.78006e-07
-2.8301e-06
3.98597e-13
6.55124e-07
-3.33645e-06
3.06205e-13
3.04377e-07
-3.30303e-06
2.51646e-13
-2.75523e-07
-2.60035e-06
2.24647e-13
-9.77808e-07
-1.37375e-06
1.82221e-13
-1.50277e-06
-2.3923e-07
1.24083e-13
-1.35914e-06
5.27268e-14
-3.43429e-07
-2.80656e-07
1.04115e-07
1.76542e-07
-1.067e-06
1.46118e-07
6.40226e-07
-2.00238e-06
1.57373e-07
7.78007e-07
-2.8301e-06
1.72596e-07
6.55124e-07
-3.33645e-06
2.01977e-07
3.04377e-07
-3.30303e-06
2.42107e-07
-2.75523e-07
-2.60035e-06
2.7512e-07
-9.77808e-07
-1.37375e-06
2.76169e-07
-1.50277e-06
-2.3923e-07
2.24623e-07
-1.35914e-06
1.04198e-07
-3.43429e-07
-2.67965e-07
1.69046e-07
2.03035e-07
-1.01768e-06
2.27995e-07
6.67838e-07
-1.90989e-06
2.43001e-07
8.06585e-07
-2.70117e-06
2.6945e-07
6.9442e-07
-3.18916e-06
3.2323e-07
3.6674e-07
-3.16733e-06
3.98775e-07
-1.78499e-07
-2.51008e-06
4.62366e-07
-8.44495e-07
-1.3477e-06
4.70277e-07
-1.35649e-06
-2.53976e-07
3.81635e-07
-1.25074e-06
1.68678e-07
-3.18456e-07
-2.37048e-07
1.62013e-07
2.4408e-07
-9.03034e-07
1.99179e-07
6.94803e-07
-1.69821e-06
2.06466e-07
8.31714e-07
-2.40762e-06
2.34384e-07
7.44474e-07
-2.85152e-06
2.96353e-07
4.7078e-07
-2.85228e-06
3.85044e-07
1.44853e-08
-2.28688e-06
4.68886e-07
-5.71922e-07
-1.26305e-06
4.90394e-07
-1.04395e-06
-2.69184e-07
3.97951e-07
-1.01018e-06
1.59422e-07
-2.59928e-07
-1.76747e-07
7.91212e-08
2.59639e-07
-6.9175e-07
7.67517e-08
6.3743e-07
-1.31414e-06
7.29502e-08
7.55904e-07
-1.87711e-06
8.88317e-08
7.08522e-07
-2.2392e-06
1.3013e-07
5.28311e-07
-2.25759e-06
1.93034e-07
2.10405e-07
-1.83461e-06
2.58305e-07
-2.12399e-07
-1.04253e-06
2.86416e-07
-5.88106e-07
-2.45843e-07
2.34378e-07
-6.3311e-07
7.44615e-08
-1.60883e-07
-7.55382e-08
1.5466e-07
-3.29574e-07
3.30787e-07
-6.4538e-07
3.88757e-07
-9.40619e-07
3.84071e-07
-1.14027e-06
3.29784e-07
-1.1637e-06
2.16459e-07
-9.52954e-07
4.75604e-08
-5.39139e-07
-1.27399e-07
-1.15323e-07
-1.89438e-07
-4.08621e-08
-2.28789e-07
-2.12253e-07
5.95699e-07
-7.31244e-07
-2.58671e-07
1.09191e-06
-1.31203e-06
-2.63232e-07
1.23277e-06
-1.84206e-06
-2.72645e-07
1.18675e-06
-2.19853e-06
-3.03771e-07
9.90027e-07
-2.24884e-06
-3.56584e-07
6.23352e-07
-1.89381e-06
-4.10754e-07
1.03282e-07
-1.15691e-06
-4.14037e-07
-4.50259e-07
-3.3644e-07
-3.09653e-07
-7.00254e-07
-5.73859e-08
-3.19916e-07
-5.811e-07
-3.59008e-07
9.87491e-07
-1.72222e-06
-4.91572e-07
2.01145e-06
-2.99883e-06
-5.1434e-07
2.28362e-06
-4.11536e-06
-5.33155e-07
2.08556e-06
-4.81441e-06
-5.82517e-07
1.5061e-06
-4.84948e-06
-6.59602e-07
5.485e-07
-4.04617e-06
-7.32716e-07
-6.93752e-07
-2.49531e-06
-7.20654e-07
-1.83234e-06
-7.93671e-07
-5.5058e-07
-2.09383e-06
-1.7116e-07
-8.40779e-07
-8.02476e-07
-3.45495e-07
1.03304e-06
-2.34239e-06
-5.02367e-07
2.24551e-06
-4.03527e-06
-5.33789e-07
2.54404e-06
-5.48236e-06
-5.52696e-07
2.2111e-06
-6.34747e-06
-5.96813e-07
1.35019e-06
-6.33704e-06
-6.64419e-07
8.87423e-09
-5.2257e-06
-7.15524e-07
-1.70046e-06
-3.17722e-06
-6.92117e-07
-3.12097e-06
-9.88115e-07
-5.36137e-07
-3.21372e-06
-2.01777e-07
-1.21743e-06
-9.20208e-07
-2.04813e-07
9.8256e-07
-2.68447e-06
-3.06981e-07
2.23671e-06
-4.6096e-06
-3.28646e-07
2.52657e-06
-6.23513e-06
-3.3961e-07
2.10686e-06
-7.18297e-06
-3.63545e-07
1.08131e-06
-7.1208e-06
-3.99293e-07
-5.058e-07
-5.81884e-06
-4.23374e-07
-2.43861e-06
-3.48464e-06
-4.05863e-07
-3.97694e-06
-1.04606e-06
-3.1728e-07
-3.90817e-06
-1.29982e-07
-1.43632e-06
-9.68583e-07
7.78352e-13
9.40312e-07
-2.831e-06
-1.25374e-13
2.19566e-06
-4.85824e-06
-2.3928e-13
2.47661e-06
-6.56096e-06
-6.03154e-14
2.01823e-06
-7.54208e-06
8.14008e-14
9.21946e-07
-7.45095e-06
1.99075e-13
-7.65938e-07
-6.05883e-06
2.59485e-13
-2.7933e-06
-3.59703e-06
2.47569e-13
-4.37043e-06
-1.05666e-06
1.6885e-13
-4.21679e-06
9.14475e-14
-1.53007e-06
-9.68583e-07
2.04814e-07
9.40312e-07
-2.831e-06
3.06981e-07
2.19566e-06
-4.85824e-06
3.28645e-07
2.47661e-06
-6.56096e-06
3.3961e-07
2.01823e-06
-7.54208e-06
3.63545e-07
9.21946e-07
-7.45095e-06
3.99293e-07
-7.65938e-07
-6.05883e-06
4.23375e-07
-2.7933e-06
-3.59703e-06
4.05863e-07
-4.37043e-06
-1.05666e-06
3.1728e-07
-4.21679e-06
1.29982e-07
-1.53007e-06
-9.20207e-07
3.45496e-07
9.8256e-07
-2.68447e-06
5.02366e-07
2.23672e-06
-4.6096e-06
5.33788e-07
2.52657e-06
-6.23513e-06
5.52696e-07
2.10686e-06
-7.18297e-06
5.96814e-07
1.08131e-06
-7.1208e-06
6.6442e-07
-5.058e-07
-5.81884e-06
7.15524e-07
-2.43861e-06
-3.48464e-06
6.92118e-07
-3.97694e-06
-1.04606e-06
5.36137e-07
-3.90817e-06
2.01777e-07
-1.43632e-06
-8.02474e-07
3.59007e-07
1.03304e-06
-2.34239e-06
4.9157e-07
2.24551e-06
-4.03527e-06
5.14339e-07
2.54404e-06
-5.48236e-06
5.33155e-07
2.2111e-06
-6.34747e-06
5.82517e-07
1.35019e-06
-6.33704e-06
6.59603e-07
8.87412e-09
-5.2257e-06
7.32716e-07
-1.70046e-06
-3.17722e-06
7.20654e-07
-3.12097e-06
-9.88115e-07
5.50581e-07
-3.21372e-06
1.7116e-07
-1.21743e-06
-5.81098e-07
2.12252e-07
9.87492e-07
-1.72222e-06
2.58669e-07
2.01146e-06
-2.99883e-06
2.63232e-07
2.28362e-06
-4.11536e-06
2.72645e-07
2.08556e-06
-4.81441e-06
3.03771e-07
1.5061e-06
-4.84948e-06
3.56585e-07
5.485e-07
-4.04617e-06
4.10755e-07
-6.93753e-07
-2.49531e-06
4.14038e-07
-1.83234e-06
-7.93671e-07
3.09653e-07
-2.09383e-06
5.7386e-08
-8.40779e-07
-2.28787e-07
5.95699e-07
-7.31243e-07
1.09191e-06
-1.31203e-06
1.23277e-06
-1.84206e-06
1.18675e-06
-2.19853e-06
9.90027e-07
-2.24884e-06
6.23352e-07
-1.89381e-06
1.03282e-07
-1.15691e-06
-4.50259e-07
-3.3644e-07
-7.00254e-07
-3.19916e-07
-3.3947e-07
-3.30851e-07
1.26602e-06
-1.01416e-06
-4.15437e-07
2.18204e-06
-1.77336e-06
-4.17713e-07
2.40969e-06
-2.48145e-06
-4.05433e-07
2.30027e-06
-3.00734e-06
-4.07743e-07
1.92366e-06
-3.18099e-06
-4.34715e-07
1.23172e-06
-2.82434e-06
-4.70995e-07
2.17623e-07
-1.87539e-06
-4.70984e-07
-9.28222e-07
-6.47209e-07
-3.51443e-07
-1.57699e-06
-3.0216e-08
-9.3691e-07
-9.04344e-07
-5.35806e-07
2.09679e-06
-2.5265e-06
-7.40339e-07
3.95851e-06
-4.28979e-06
-7.55352e-07
4.38455e-06
-5.84762e-06
-7.30723e-07
3.96868e-06
-6.90222e-06
-7.22565e-07
2.87552e-06
-7.12677e-06
-7.43865e-07
1.0822e-06
-6.21495e-06
-7.69333e-07
-1.30723e-06
-4.11796e-06
-7.4122e-07
-3.6591e-06
-1.49427e-06
-5.65478e-07
-4.50348e-06
-1.34685e-07
-2.23058e-06
-1.27641e-06
-5.00136e-07
2.27379e-06
-3.51712e-06
-7.28013e-07
4.47389e-06
-5.90382e-06
-7.49589e-07
4.92497e-06
-7.9497e-06
-7.22066e-07
4.24834e-06
-9.2591e-06
-7.03133e-07
2.64015e-06
-9.42865e-06
-7.02056e-07
1.36617e-07
-8.10801e-06
-6.99918e-07
-3.09052e-06
-5.2961e-06
-6.57737e-07
-6.01635e-06
-1.89009e-06
-5.11984e-07
-6.67323e-06
-1.68869e-07
-3.07333e-06
-1.48012e-06
-2.90887e-07
2.25343e-06
-4.07287e-06
-4.35248e-07
4.5367e-06
-6.80738e-06
-4.50198e-07
4.96169e-06
-9.11125e-06
-4.3194e-07
4.12061e-06
-1.05339e-05
-4.15879e-07
2.2167e-06
-1.06368e-05
-4.07348e-07
-6.97648e-07
-9.05498e-06
-3.95571e-07
-4.32472e-06
-5.83988e-06
-3.66297e-07
-7.48348e-06
-2.03853e-06
-2.89564e-07
-7.93194e-06
-1.09957e-07
-3.53376e-06
-1.5649e-06
6.74104e-13
2.21433e-06
-4.31142e-06
-2.5841e-13
4.50693e-06
-7.19736e-06
-4.12022e-13
4.91235e-06
-9.61015e-06
-2.21406e-13
3.99908e-06
-1.10749e-05
-5.49367e-14
1.97079e-06
-1.11367e-05
7.55758e-14
-1.11147e-06
-9.43297e-06
1.42746e-13
-4.89259e-06
-6.04283e-06
1.31986e-13
-8.12688e-06
-2.08319e-06
8.57795e-14
-8.46599e-06
7.57341e-14
-3.72322e-06
-1.5649e-06
2.90888e-07
2.21433e-06
-4.31142e-06
4.35247e-07
4.50693e-06
-7.19736e-06
4.50198e-07
4.91235e-06
-9.61014e-06
4.3194e-07
3.99908e-06
-1.10749e-05
4.15879e-07
1.97079e-06
-1.11367e-05
4.07348e-07
-1.11147e-06
-9.43297e-06
3.95571e-07
-4.89259e-06
-6.04283e-06
3.66297e-07
-8.12688e-06
-2.08319e-06
2.89565e-07
-8.46599e-06
1.09957e-07
-3.72322e-06
-1.48012e-06
5.00136e-07
2.25343e-06
-4.07287e-06
7.28011e-07
4.5367e-06
-6.80738e-06
7.49588e-07
4.96169e-06
-9.11125e-06
7.22065e-07
4.12061e-06
-1.05339e-05
7.03133e-07
2.21671e-06
-1.06368e-05
7.02057e-07
-6.97648e-07
-9.05498e-06
6.99918e-07
-4.32472e-06
-5.83988e-06
6.57737e-07
-7.48348e-06
-2.03853e-06
5.11984e-07
-7.93194e-06
1.68869e-07
-3.53376e-06
-1.27641e-06
5.35806e-07
2.27379e-06
-3.51712e-06
7.40337e-07
4.47389e-06
-5.90381e-06
7.55351e-07
4.92497e-06
-7.9497e-06
7.30723e-07
4.24834e-06
-9.2591e-06
7.22565e-07
2.64015e-06
-9.42865e-06
7.43865e-07
1.36617e-07
-8.108e-06
7.69333e-07
-3.09052e-06
-5.2961e-06
7.4122e-07
-6.01635e-06
-1.89009e-06
5.65478e-07
-6.67323e-06
1.34686e-07
-3.07333e-06
-9.04342e-07
3.3085e-07
2.09679e-06
-2.5265e-06
4.15436e-07
3.95851e-06
-4.28979e-06
4.17712e-07
4.38455e-06
-5.84762e-06
4.05433e-07
3.96868e-06
-6.90222e-06
4.07743e-07
2.87552e-06
-7.12676e-06
4.34715e-07
1.0822e-06
-6.21495e-06
4.70996e-07
-1.30723e-06
-4.11796e-06
4.70984e-07
-3.6591e-06
-1.49427e-06
3.51443e-07
-4.50348e-06
3.0216e-08
-2.23058e-06
-3.3947e-07
1.26602e-06
-1.01416e-06
2.18204e-06
-1.77336e-06
2.40969e-06
-2.48145e-06
2.30027e-06
-3.00734e-06
1.92366e-06
-3.18099e-06
1.23172e-06
-2.82434e-06
2.17623e-07
-1.87539e-06
-9.28222e-07
-6.47209e-07
-1.57699e-06
-9.3691e-07
-4.38867e-07
-4.49367e-07
2.15425e-06
-1.25488e-06
-5.59799e-07
3.55785e-06
-2.16083e-06
-5.38257e-07
3.8539e-06
-3.04919e-06
-4.73195e-07
3.66182e-06
-3.81432e-06
-4.06848e-07
3.09564e-06
-4.25977e-06
-3.67333e-07
2.04451e-06
-4.08148e-06
-3.62786e-07
4.0211e-07
-3.01455e-06
-3.86672e-07
-1.60848e-06
-1.24258e-06
-3.28085e-07
-3.02088e-06
-1.06313e-08
-2.16885e-06
-1.19504e-06
-7.12772e-07
3.55523e-06
-3.23379e-06
-9.67057e-07
6.40452e-06
-5.42148e-06
-9.33051e-07
6.96704e-06
-7.42253e-06
-8.0121e-07
6.29775e-06
-8.95499e-06
-6.49651e-07
4.65078e-06
-9.62614e-06
-5.22514e-07
1.90853e-06
-8.92723e-06
-4.47392e-07
-1.92153e-06
-6.46032e-06
-4.44062e-07
-6.06862e-06
-2.69206e-06
-4.03251e-07
-8.19658e-06
-8.12579e-08
-4.85201e-06
-1.7031e-06
-6.53884e-07
3.918e-06
-4.55859e-06
-9.29729e-07
7.29206e-06
-7.55469e-06
-8.98529e-07
7.88655e-06
-1.01876e-05
-7.56872e-07
6.83694e-06
-1.20645e-05
-5.83049e-07
4.45042e-06
-1.26987e-05
-4.16129e-07
6.64423e-07
-1.15393e-05
-3.05532e-07
-4.3918e-06
-8.20115e-06
-2.85862e-07
-9.51268e-06
-3.36269e-06
-2.90653e-07
-1.16243e-05
-1.02956e-07
-6.41432e-06
-1.9833e-06
-3.75732e-07
3.95858e-06
-5.30345e-06
-5.47847e-07
7.47497e-06
-8.74476e-06
-5.29551e-07
8.03402e-06
-1.16968e-05
-4.40064e-07
6.75589e-06
-1.37017e-05
-3.27282e-07
3.96579e-06
-1.42527e-05
-2.16032e-07
-3.46753e-07
-1.27831e-05
-1.36216e-07
-5.96366e-06
-8.97244e-06
-1.21687e-07
-1.14583e-05
-3.62622e-06
-1.40194e-07
-1.34286e-05
-6.53349e-08
-7.1976e-06
-2.09955e-06
5.94683e-13
3.93815e-06
-5.62067e-06
-2.052e-13
7.4802e-06
-9.25193e-06
-4.03384e-13
8.01406e-06
-1.23327e-05
-2.9572e-13
6.63975e-06
-1.4378e-05
-1.79621e-13
3.68879e-06
-1.48711e-05
-7.88954e-14
-8.34378e-07
-1.32592e-05
-1.76003e-14
-6.64071e-06
-9.25356e-06
-1.03667e-14
-1.22542e-05
-3.71431e-06
5.38916e-14
-1.41454e-05
7.50565e-14
-7.50286e-06
-2.09955e-06
3.75733e-07
3.93815e-06
-5.62067e-06
5.47847e-07
7.4802e-06
-9.25193e-06
5.2955e-07
8.01407e-06
-1.23327e-05
4.40064e-07
6.63975e-06
-1.4378e-05
3.27282e-07
3.68879e-06
-1.48711e-05
2.16032e-07
-8.34378e-07
-1.32592e-05
1.36216e-07
-6.64071e-06
-9.25356e-06
1.21687e-07
-1.22542e-05
-3.71431e-06
1.40194e-07
-1.41454e-05
6.5335e-08
-7.50286e-06
-1.98329e-06
6.53884e-07
3.95858e-06
-5.30345e-06
9.29728e-07
7.47498e-06
-8.74476e-06
8.98528e-07
8.03402e-06
-1.16968e-05
7.56872e-07
6.75589e-06
-1.37017e-05
5.83049e-07
3.96579e-06
-1.42527e-05
4.16129e-07
-3.46753e-07
-1.27831e-05
3.05532e-07
-5.96366e-06
-8.97244e-06
2.85862e-07
-1.14583e-05
-3.62622e-06
2.90654e-07
-1.34286e-05
1.02956e-07
-7.1976e-06
-1.7031e-06
7.12773e-07
3.918e-06
-4.55859e-06
9.67057e-07
7.29206e-06
-7.55469e-06
9.33051e-07
7.88655e-06
-1.01876e-05
8.0121e-07
6.83694e-06
-1.20645e-05
6.49651e-07
4.45042e-06
-1.26987e-05
5.22514e-07
6.64423e-07
-1.15393e-05
4.47393e-07
-4.3918e-06
-8.20115e-06
4.44062e-07
-9.51268e-06
-3.36269e-06
4.03251e-07
-1.16243e-05
8.1258e-08
-6.41432e-06
-1.19504e-06
4.49367e-07
3.55523e-06
-3.23379e-06
5.59799e-07
6.40452e-06
-5.42148e-06
5.38257e-07
6.96704e-06
-7.42253e-06
4.73195e-07
6.29775e-06
-8.95498e-06
4.06848e-07
4.65078e-06
-9.62614e-06
3.67333e-07
1.90853e-06
-8.92723e-06
3.62786e-07
-1.92153e-06
-6.46032e-06
3.86672e-07
-6.06862e-06
-2.69206e-06
3.28085e-07
-8.19658e-06
1.06314e-08
-4.85201e-06
-4.38867e-07
2.15425e-06
-1.25488e-06
3.55785e-06
-2.16083e-06
3.8539e-06
-3.04919e-06
3.66182e-06
-3.81432e-06
3.09564e-06
-4.25977e-06
2.04451e-06
-4.08148e-06
4.0211e-07
-3.01455e-06
-1.60848e-06
-1.24258e-06
-3.02088e-06
-2.16885e-06
-5.6541e-07
-5.65047e-07
3.28471e-06
-1.4913e-06
-6.80159e-07
5.1639e-06
-2.48468e-06
-5.9198e-07
5.43925e-06
-3.51929e-06
-4.07792e-07
5.10423e-06
-4.56969e-06
-1.81295e-07
4.32734e-06
-5.46066e-06
3.64628e-08
2.89901e-06
-5.73631e-06
1.42227e-07
5.35537e-07
-4.77465e-06
6.88072e-08
-2.63894e-06
-2.35994e-06
-9.82384e-08
-5.33736e-06
-1.28469e-08
-4.51594e-06
-1.50423e-06
-8.7961e-07
5.37402e-06
-3.88749e-06
-1.14803e-06
9.25565e-06
-6.38225e-06
-9.91025e-07
9.86085e-06
-8.74642e-06
-6.33851e-07
8.88798e-06
-1.07979e-05
-1.82872e-07
6.70387e-06
-1.21436e-05
2.53232e-07
3.03742e-06
-1.20667e-05
5.1427e-07
-2.37049e-06
-9.63571e-06
4.15616e-07
-8.84639e-06
-4.67362e-06
6.42006e-08
-1.33211e-05
-3.80413e-08
-9.50043e-06
-2.1242e-06
-7.94739e-07
5.95732e-06
-5.48217e-06
-1.08416e-06
1.05862e-05
-8.91877e-06
-9.29168e-07
1.12613e-05
-1.19972e-05
-5.60107e-07
9.84161e-06
-1.44156e-05
-8.6667e-08
6.77267e-06
-1.56988e-05
3.74918e-07
1.82592e-06
-1.51265e-05
6.56384e-07
-5.10627e-06
-1.17929e-05
5.60979e-07
-1.29916e-05
-5.63041e-06
1.77744e-07
-1.79003e-05
-3.36799e-08
-1.20491e-05
-2.45984e-06
-4.51831e-07
6.07551e-06
-6.36224e-06
-6.31203e-07
1.09244e-05
-1.02995e-05
-5.37973e-07
1.15801e-05
-1.37057e-05
-3.11301e-07
9.91333e-06
-1.62153e-05
-1.88206e-08
6.40754e-06
-1.73351e-05
2.66842e-07
8.8107e-07
-1.64217e-05
4.35989e-07
-6.65668e-06
-1.26423e-05
3.73224e-07
-1.50499e-05
-5.98997e-06
1.33319e-07
-2.00365e-05
-1.64033e-08
-1.32048e-05
-2.59582e-06
4.71038e-13
6.08213e-06
-6.72794e-06
-1.69144e-13
1.09811e-05
-1.08705e-05
-4.33716e-13
1.16186e-05
-1.43968e-05
-4.3254e-13
9.85482e-06
-1.69154e-05
-3.55765e-13
6.18853e-06
-1.79406e-05
-2.3085e-13
4.57671e-07
-1.68761e-05
-1.07188e-13
-7.26921e-06
-1.29332e-05
-2.60577e-14
-1.58238e-05
-6.11536e-06
8.06718e-14
-2.083e-05
8.22855e-14
-1.36346e-05
-2.59582e-06
4.51832e-07
6.08213e-06
-6.72794e-06
6.31202e-07
1.09811e-05
-1.08705e-05
5.37972e-07
1.16186e-05
-1.43968e-05
3.113e-07
9.85482e-06
-1.69154e-05
1.88199e-08
6.18853e-06
-1.79406e-05
-2.66843e-07
4.57671e-07
-1.68761e-05
-4.35989e-07
-7.26921e-06
-1.29332e-05
-3.73224e-07
-1.58238e-05
-6.11536e-06
-1.33319e-07
-2.083e-05
1.64034e-08
-1.36346e-05
-2.45984e-06
7.9474e-07
6.07551e-06
-6.36224e-06
1.08416e-06
1.09244e-05
-1.02995e-05
9.29167e-07
1.15801e-05
-1.37057e-05
5.60106e-07
9.91333e-06
-1.62153e-05
8.66667e-08
6.40754e-06
-1.73351e-05
-3.74918e-07
8.81071e-07
-1.64217e-05
-6.56384e-07
-6.65668e-06
-1.26423e-05
-5.60979e-07
-1.50499e-05
-5.98997e-06
-1.77744e-07
-2.00365e-05
3.368e-08
-1.32048e-05
-2.1242e-06
8.7961e-07
5.95732e-06
-5.48217e-06
1.14803e-06
1.05862e-05
-8.91877e-06
9.91025e-07
1.12613e-05
-1.19972e-05
6.33851e-07
9.84161e-06
-1.44156e-05
1.82872e-07
6.77267e-06
-1.56988e-05
-2.53232e-07
1.82592e-06
-1.51265e-05
-5.14269e-07
-5.10627e-06
-1.17929e-05
-4.15616e-07
-1.29916e-05
-5.63041e-06
-6.42004e-08
-1.79003e-05
3.80414e-08
-1.20491e-05
-1.50423e-06
5.65047e-07
5.37402e-06
-3.88749e-06
6.80158e-07
9.25565e-06
-6.38225e-06
5.9198e-07
9.86085e-06
-8.74642e-06
4.07792e-07
8.88798e-06
-1.07979e-05
1.81295e-07
6.70387e-06
-1.21436e-05
-3.64626e-08
3.03742e-06
-1.20667e-05
-1.42226e-07
-2.37048e-06
-9.63571e-06
-6.88071e-08
-8.84639e-06
-4.67362e-06
9.82385e-08
-1.33211e-05
1.2847e-08
-9.50043e-06
-5.65411e-07
3.28471e-06
-1.4913e-06
5.16389e-06
-2.48468e-06
5.43925e-06
-3.51929e-06
5.10423e-06
-4.5697e-06
4.32734e-06
-5.46066e-06
2.89901e-06
-5.73631e-06
5.35537e-07
-4.77465e-06
-2.63894e-06
-2.35994e-06
-5.33736e-06
-4.51594e-06
-7.96177e-07
-6.77819e-07
4.75871e-06
-1.76561e-06
-7.59416e-07
6.89275e-06
-2.6895e-06
-5.34917e-07
6.89806e-06
-3.71784e-06
-1.2997e-07
6.26253e-06
-4.99181e-06
3.84279e-07
5.21703e-06
-6.43389e-06
8.9694e-07
3.44415e-06
-7.49266e-06
1.20307e-06
3.91235e-07
-7.06984e-06
1.02168e-06
-4.08345e-06
-4.18048e-06
4.14941e-07
-8.64165e-06
-7.26399e-08
-8.62379e-06
-1.9033e-06
-1.02911e-06
7.62862e-06
-4.47131e-06
-1.25709e-06
1.23213e-05
-6.94876e-06
-8.73141e-07
1.26765e-05
-9.31371e-06
-1.40685e-07
1.12636e-05
-1.1608e-05
7.85944e-07
8.59648e-06
-1.35969e-05
1.69238e-06
4.23086e-06
-1.44995e-05
2.20624e-06
-2.47103e-06
-1.28387e-05
1.88915e-06
-1.13747e-05
-7.29103e-06
8.26511e-07
-1.92803e-05
-7.36378e-08
-1.67905e-05
-2.5824e-06
-9.1289e-07
8.4235e-06
-6.19517e-06
-1.16827e-06
1.41101e-05
-9.62616e-06
-7.99876e-07
1.4619e-05
-1.26335e-05
-7.6023e-08
1.27843e-05
-1.51404e-05
8.30354e-07
9.23516e-06
-1.68788e-05
1.69425e-06
3.56241e-06
-1.71914e-05
2.1392e-06
-4.72659e-06
-1.47454e-05
1.78686e-06
-1.53353e-05
-8.25967e-06
7.77163e-07
-2.43367e-05
-4.08973e-08
-2.03415e-05
-2.93065e-06
-5.12745e-07
8.60602e-06
-7.10269e-06
-6.72704e-07
1.46009e-05
-1.10086e-05
-4.55535e-07
1.51416e-05
-1.42556e-05
-2.34713e-08
1.31078e-05
-1.67119e-05
5.13579e-07
9.18056e-06
-1.81447e-05
1.01443e-06
2.99373e-06
-1.80689e-05
1.2504e-06
-5.84375e-06
-1.53114e-05
1.02002e-06
-1.70405e-05
-8.58011e-06
4.3641e-07
-2.64271e-05
-1.33967e-08
-2.18125e-05
-3.06416e-06
3.256e-13
8.63354e-06
-7.46144e-06
-1.69039e-13
1.47057e-05
-1.15488e-05
-4.64607e-13
1.52504e-05
-1.48646e-05
-5.2567e-13
1.31472e-05
-1.72601e-05
-4.23363e-13
9.09756e-06
-1.85413e-05
-2.45898e-13
2.75329e-06
-1.83163e-05
-5.96377e-14
-6.24378e-06
-1.54821e-05
6.58909e-14
-1.7638e-05
-8.70229e-06
1.26594e-13
-2.71734e-05
1.32847e-13
-2.23503e-05
-3.06416e-06
5.12746e-07
8.63354e-06
-7.46144e-06
6.72704e-07
1.47057e-05
-1.15488e-05
4.55534e-07
1.52504e-05
-1.48646e-05
2.34703e-08
1.31472e-05
-1.72601e-05
-5.1358e-07
9.09756e-06
-1.85413e-05
-1.01443e-06
2.75329e-06
-1.83163e-05
-1.2504e-06
-6.24378e-06
-1.54821e-05
-1.02002e-06
-1.7638e-05
-8.70229e-06
-4.3641e-07
-2.71734e-05
1.33969e-08
-2.23503e-05
-2.93065e-06
9.1289e-07
8.60602e-06
-7.10269e-06
1.16827e-06
1.46009e-05
-1.10086e-05
7.99875e-07
1.51416e-05
-1.42556e-05
7.60224e-08
1.31078e-05
-1.67119e-05
-8.30354e-07
9.18056e-06
-1.81447e-05
-1.69425e-06
2.99373e-06
-1.80689e-05
-2.1392e-06
-5.84375e-06
-1.53114e-05
-1.78686e-06
-1.70405e-05
-8.58011e-06
-7.77163e-07
-2.64271e-05
4.08975e-08
-2.18125e-05
-2.5824e-06
1.02911e-06
8.4235e-06
-6.19517e-06
1.25709e-06
1.41101e-05
-9.62616e-06
8.7314e-07
1.4619e-05
-1.26335e-05
1.40685e-07
1.27843e-05
-1.51404e-05
-7.85944e-07
9.23516e-06
-1.68788e-05
-1.69238e-06
3.56241e-06
-1.71914e-05
-2.20623e-06
-4.72659e-06
-1.47454e-05
-1.88915e-06
-1.53353e-05
-8.25967e-06
-8.26511e-07
-2.43367e-05
7.36379e-08
-2.03415e-05
-1.9033e-06
6.7782e-07
7.62862e-06
-4.47131e-06
7.59416e-07
1.23213e-05
-6.94876e-06
5.34917e-07
1.26765e-05
-9.31371e-06
1.2997e-07
1.12636e-05
-1.1608e-05
-3.84279e-07
8.59648e-06
-1.35969e-05
-8.9694e-07
4.23086e-06
-1.44995e-05
-1.20307e-06
-2.47103e-06
-1.28387e-05
-1.02168e-06
-1.13747e-05
-7.29103e-06
-4.14941e-07
-1.92803e-05
7.26399e-08
-1.67905e-05
-7.96177e-07
4.75871e-06
-1.76561e-06
6.89274e-06
-2.6895e-06
6.89806e-06
-3.71784e-06
6.26253e-06
-4.99181e-06
5.21703e-06
-6.43389e-06
3.44415e-06
-7.49266e-06
3.91235e-07
-7.06984e-06
-4.08345e-06
-4.18048e-06
-8.64165e-06
-8.62379e-06
-1.35754e-06
-8.19411e-07
6.93566e-06
-2.16856e-06
-8.27673e-07
8.53145e-06
-2.65575e-06
-3.92688e-07
7.77794e-06
-3.2924e-06
3.14079e-07
6.5851e-06
-4.47329e-06
1.19408e-06
5.20385e-06
-6.3385e-06
2.11005e-06
3.1993e-06
-8.40557e-06
2.71944e-06
-2.61135e-07
-9.13192e-06
2.45527e-06
-5.81238e-06
-6.4288e-06
1.19121e-06
-1.2536e-05
-2.57609e-07
-1.4795e-05
-2.6366e-06
-1.18967e-06
1.06355e-05
-5.00026e-06
-1.33171e-06
1.5189e-05
-6.74264e-06
-6.38225e-07
1.46644e-05
-8.26136e-06
5.41564e-07
1.25549e-05
-9.97497e-06
1.99342e-06
9.51075e-06
-1.20067e-05
3.40261e-06
4.97006e-06
-1.38323e-05
4.18469e-06
-2.11071e-06
-1.3778e-05
3.58872e-06
-1.25624e-05
-9.28859e-06
1.6007e-06
-2.41792e-05
-3.53361e-07
-2.59833e-05
-3.283e-06
-1.02493e-06
1.15418e-05
-6.62706e-06
-1.21145e-06
1.73339e-05
-9.15014e-06
-5.76113e-07
1.708e-05
-1.10165e-05
5.29458e-07
1.46628e-05
-1.25467e-05
1.86683e-06
1.0892e-05
-1.39246e-05
3.09574e-06
5.24712e-06
-1.49128e-05
3.65851e-06
-3.21218e-06
-1.42629e-05
2.97666e-06
-1.53731e-05
-9.57343e-06
1.22022e-06
-2.86457e-05
-2.73743e-07
-2.99945e-05
-3.5789e-06
-5.65672e-07
1.17257e-05
-7.40827e-06
-6.88519e-07
1.79073e-05
-1.02845e-05
-3.24361e-07
1.7766e-05
-1.22158e-05
3.16264e-07
1.52523e-05
-1.34838e-05
1.08067e-06
1.12347e-05
-1.43721e-05
1.75742e-06
5.22034e-06
-1.49044e-05
2.02256e-06
-3.67549e-06
-1.41217e-05
1.58661e-06
-1.64331e-05
-9.60217e-06
6.16069e-07
-3.03425e-05
-1.32802e-07
-3.15556e-05
-3.67954e-06
1.72493e-13
1.17474e-05
-7.6884e-06
-2.15084e-13
1.8026e-05
-1.06834e-05
-5.08945e-13
1.79211e-05
-1.2606e-05
-5.76717e-13
1.53861e-05
-1.37334e-05
-4.28966e-13
1.13056e-05
-1.44173e-05
-1.93032e-13
5.19456e-06
-1.48106e-05
1.89045e-14
-3.82794e-06
-1.40566e-05
1.4262e-13
-1.68054e-05
-9.65017e-06
1.85694e-13
-3.09637e-05
1.88634e-13
-3.21333e-05
-3.67954e-06
5.65672e-07
1.17474e-05
-7.6884e-06
6.88519e-07
1.8026e-05
-1.06834e-05
3.2436e-07
1.79211e-05
-1.2606e-05
-3.16265e-07
1.53861e-05
-1.37334e-05
-1.08067e-06
1.13056e-05
-1.44173e-05
-1.75742e-06
5.19456e-06
-1.48106e-05
-2.02256e-06
-3.82794e-06
-1.40566e-05
-1.58661e-06
-1.68054e-05
-9.65017e-06
-6.16069e-07
-3.09637e-05
1.32803e-07
-3.21333e-05
-3.5789e-06
1.02493e-06
1.17257e-05
-7.40827e-06
1.21145e-06
1.79073e-05
-1.02845e-05
5.76113e-07
1.7766e-05
-1.22158e-05
-5.29459e-07
1.52523e-05
-1.34838e-05
-1.86683e-06
1.12347e-05
-1.43721e-05
-3.09574e-06
5.22034e-06
-1.49044e-05
-3.65851e-06
-3.67549e-06
-1.41217e-05
-2.97666e-06
-1.64331e-05
-9.60217e-06
-1.22022e-06
-3.03425e-05
2.73744e-07
-3.15556e-05
-3.283e-06
1.18967e-06
1.15418e-05
-6.62706e-06
1.33171e-06
1.73339e-05
-9.15014e-06
6.38225e-07
1.708e-05
-1.10165e-05
-5.41564e-07
1.46628e-05
-1.25467e-05
-1.99342e-06
1.0892e-05
-1.39246e-05
-3.40261e-06
5.24712e-06
-1.49128e-05
-4.18469e-06
-3.21218e-06
-1.42629e-05
-3.58872e-06
-1.53731e-05
-9.57343e-06
-1.6007e-06
-2.86457e-05
3.53361e-07
-2.99945e-05
-2.6366e-06
8.19411e-07
1.06355e-05
-5.00026e-06
8.27673e-07
1.5189e-05
-6.74264e-06
3.92687e-07
1.46644e-05
-8.26136e-06
-3.14079e-07
1.25549e-05
-9.97497e-06
-1.19408e-06
9.51075e-06
-1.20067e-05
-2.11005e-06
4.97006e-06
-1.38323e-05
-2.71944e-06
-2.11071e-06
-1.3778e-05
-2.45527e-06
-1.25624e-05
-9.28859e-06
-1.19121e-06
-2.41792e-05
2.57609e-07
-2.59833e-05
-1.35754e-06
6.93566e-06
-2.16856e-06
8.53145e-06
-2.65575e-06
7.77794e-06
-3.2924e-06
6.5851e-06
-4.47329e-06
5.20385e-06
-6.3385e-06
3.1993e-06
-8.40557e-06
-2.61134e-07
-9.13192e-06
-5.81238e-06
-6.4288e-06
-1.2536e-05
-1.4795e-05
-2.59446e-06
-1.09399e-06
1.06241e-05
-2.56205e-06
-1.06317e-06
9.56221e-06
-1.7705e-06
-4.30269e-07
7.41666e-06
-1.23856e-06
5.37324e-07
5.51584e-06
-1.63104e-06
1.70403e-06
3.8923e-06
-3.33081e-06
2.94435e-06
1.95471e-06
-6.24895e-06
3.90179e-06
-1.24479e-06
-8.68437e-06
3.67766e-06
-7.05461e-06
-7.64841e-06
1.71922e-06
-1.52912e-05
-9.14862e-07
-2.15285e-05
-4.32191e-06
-1.48527e-06
1.53487e-05
-5.37745e-06
-1.60946e-06
1.67909e-05
-4.85233e-06
-6.8864e-07
1.43977e-05
-3.97886e-06
7.71871e-07
1.14469e-05
-3.63291e-06
2.52238e-06
8.34645e-06
-4.37511e-06
4.23841e-06
4.41821e-06
-6.33043e-06
5.32029e-06
-1.57389e-06
-8.42332e-06
4.64045e-06
-1.14323e-05
-7.59723e-06
1.80198e-06
-2.50881e-05
-1.23104e-06
-3.32644e-05
-4.98231e-06
-1.21847e-06
1.62573e-05
-6.79145e-06
-1.40296e-06
1.89365e-05
-6.64879e-06
-6.07703e-07
1.68564e-05
-5.62693e-06
6.80813e-07
1.3732e-05
-4.5553e-06
2.19097e-06
1.01517e-05
-4.1201e-06
3.58955e-06
5.46077e-06
-4.8143e-06
4.31729e-06
-1.51498e-06
-6.42168e-06
3.53355e-06
-1.26588e-05
-6.29689e-06
1.20163e-06
-2.81702e-05
-8.87749e-07
-3.66347e-05
-5.21419e-06
-6.52948e-07
1.63743e-05
-7.36362e-06
-7.77383e-07
1.94312e-05
-7.39001e-06
-3.37083e-07
1.75218e-05
-6.25422e-06
3.83331e-07
1.4414e-05
-4.76938e-06
1.21689e-06
1.0724e-05
-3.72398e-06
1.96039e-06
5.80411e-06
-3.88e-06
2.29584e-06
-1.49802e-06
-5.4661e-06
1.8065e-06
-1.312e-05
-5.86427e-06
5.74065e-07
-2.93167e-05
-4.14099e-07
-3.78935e-05
-5.2716e-06
1.05874e-14
1.63661e-05
-7.5272e-06
-3.21883e-13
1.95043e-05
-7.59628e-06
-5.64137e-13
1.76531e-05
-6.3978e-06
-5.88981e-13
1.45709e-05
-4.74646e-06
-4.22716e-13
1.08712e-05
-3.49126e-06
-1.84892e-13
5.89974e-06
-3.51723e-06
2.2025e-14
-1.50612e-06
-5.19875e-06
1.5062e-13
-1.33174e-05
-5.82157e-06
1.86428e-13
-2.97668e-05
1.85235e-13
-3.8369e-05
-5.2716e-06
6.52948e-07
1.63661e-05
-7.5272e-06
7.77383e-07
1.95043e-05
-7.59628e-06
3.37082e-07
1.76531e-05
-6.3978e-06
-3.83332e-07
1.45709e-05
-4.74646e-06
-1.21689e-06
1.08712e-05
-3.49126e-06
-1.96039e-06
5.89974e-06
-3.51723e-06
-2.29584e-06
-1.50612e-06
-5.19875e-06
-1.8065e-06
-1.33174e-05
-5.82157e-06
-5.74064e-07
-2.97668e-05
4.14099e-07
-3.8369e-05
-5.21419e-06
1.21847e-06
1.63743e-05
-7.36362e-06
1.40296e-06
1.94312e-05
-7.39001e-06
6.07702e-07
1.75218e-05
-6.25422e-06
-6.80814e-07
1.4414e-05
-4.76938e-06
-2.19097e-06
1.0724e-05
-3.72398e-06
-3.58955e-06
5.80411e-06
-3.88e-06
-4.31729e-06
-1.49802e-06
-5.4661e-06
-3.53355e-06
-1.312e-05
-5.86427e-06
-1.20163e-06
-2.93167e-05
8.87749e-07
-3.78935e-05
-4.98231e-06
1.48527e-06
1.62573e-05
-6.79145e-06
1.60946e-06
1.89365e-05
-6.64879e-06
6.88639e-07
1.68564e-05
-5.62693e-06
-7.71871e-07
1.3732e-05
-4.5553e-06
-2.52238e-06
1.01517e-05
-4.1201e-06
-4.23841e-06
5.46077e-06
-4.8143e-06
-5.32029e-06
-1.51498e-06
-6.42168e-06
-4.64045e-06
-1.26588e-05
-6.29689e-06
-1.80198e-06
-2.81702e-05
1.23104e-06
-3.66347e-05
-4.32191e-06
1.09399e-06
1.53487e-05
-5.37745e-06
1.06317e-06
1.67909e-05
-4.85233e-06
4.30269e-07
1.43977e-05
-3.97886e-06
-5.37324e-07
1.14469e-05
-3.63291e-06
-1.70403e-06
8.34645e-06
-4.37511e-06
-2.94435e-06
4.41821e-06
-6.33043e-06
-3.90179e-06
-1.57389e-06
-8.42332e-06
-3.67766e-06
-1.14323e-05
-7.59723e-06
-1.71922e-06
-2.50881e-05
9.14862e-07
-3.32644e-05
-2.59446e-06
1.06241e-05
-2.56205e-06
9.56221e-06
-1.7705e-06
7.41666e-06
-1.23856e-06
5.51583e-06
-1.63104e-06
3.8923e-06
-3.33081e-06
1.95471e-06
-6.24895e-06
-1.24479e-06
-8.68437e-06
-7.05461e-06
-7.64841e-06
-1.52912e-05
-2.15285e-05
-2.7367e-06
-1.82842e-06
1.51892e-05
2.69609e-07
-1.87355e-06
8.42945e-06
4.16526e-06
-1.12132e-06
4.64233e-06
6.96866e-06
-1.23495e-07
2.83592e-06
8.203e-06
1.06333e-06
1.59463e-06
7.39941e-06
2.3395e-06
4.18804e-07
4.20271e-06
3.554e-06
-1.60209e-06
-6.74211e-07
3.53165e-06
-5.70934e-06
-3.49677e-06
1.06847e-06
-1.35371e-05
-2.60174e-06
-2.24236e-05
-4.93047e-06
-2.15233e-06
2.0603e-05
-1.1822e-06
-2.52547e-06
1.36945e-05
4.46337e-06
-1.68079e-06
9.31158e-06
9.4703e-06
-3.2259e-07
6.63903e-06
1.3149e-05
1.27219e-06
4.45888e-06
1.47769e-05
2.92511e-06
2.20467e-06
1.34631e-05
4.28945e-06
-9.95513e-07
8.90378e-06
3.98057e-06
-7.32189e-06
2.91478e-06
9.05238e-07
-1.89359e-05
-2.6055e-06
-3.03458e-05
-5.7092e-06
-1.61113e-06
2.14253e-05
-2.19526e-06
-2.03907e-06
1.49362e-05
3.58421e-06
-1.40604e-06
1.08022e-05
9.24063e-06
-3.24651e-07
8.07762e-06
1.40249e-05
9.64159e-07
5.67552e-06
1.71067e-05
2.25349e-06
3.05062e-06
1.71739e-05
3.21607e-06
-5.08805e-07
1.31581e-05
2.8872e-06
-7.5497e-06
5.45867e-06
6.23435e-07
-2.0189e-05
-1.60686e-06
-3.21747e-05
-5.8795e-06
-8.22506e-07
2.14652e-05
-2.50545e-06
-1.08155e-06
1.50996e-05
3.25795e-06
-7.54289e-07
1.11067e-05
9.09529e-06
-1.8574e-07
8.43779e-06
1.42661e-05
4.97269e-07
6.01999e-06
1.78582e-05
1.1685e-06
3.29706e-06
1.83255e-05
1.63861e-06
-3.87866e-07
1.43442e-05