/*--------------------------------*- C++ -*----------------------------------*\
  =========                 |
  \\      /  F ield         | OpenFOAM: The Open Source CFD Toolbox
   \\    /   O peration     | Website:  https://openfoam.org
    \\  /    A nd           | Version:  9
     \\/     M anipulation  |
\*---------------------------------------------------------------------------*/
FoamFile
{
    format      ascii;
    class       surfaceScalarField;
    location    "0.2";
    object      phi;
}
// * * * * * * * * * * * * * * * * * * * * * * * * * * * * * * * * * * * * * //

dimensions      [0 3 -1 0 0 0 0];

internalField   nonuniform List<scalar> 
2700
(
-1.03251e-07
-4.96117e-08
1.52861e-07
-3.82452e-07
-3.1238e-08
3.10439e-07
-6.98184e-07
-2.24423e-08
3.38174e-07
-9.67131e-07
-2.94409e-08
2.98389e-07
-1.12973e-06
-5.2356e-08
2.14951e-07
-1.1307e-06
-8.92612e-08
9.02334e-08
-9.32422e-07
-1.28973e-07
-6.93032e-08
-5.58802e-07
-1.49484e-07
-2.24137e-07
-1.53823e-07
-1.26146e-07
-2.78833e-07
-3.36048e-08
-1.20218e-07
-2.1384e-07
-8.79338e-08
2.52162e-07
-7.37239e-07
-8.62711e-08
5.78433e-07
-1.31701e-06
-7.70037e-08
6.34334e-07
-1.7962e-06
-8.3347e-08
5.33094e-07
-2.07069e-06
-1.08618e-07
3.30757e-07
-2.05265e-06
-1.48931e-07
4.16274e-08
-1.68286e-06
-1.90041e-07
-3.08726e-07
-1.00796e-06
-2.07523e-07
-6.16856e-07
-2.88129e-07
-1.73607e-07
-6.72373e-07
-6.4184e-08
-2.57549e-07
-2.57452e-07
-8.3503e-08
2.53022e-07
-8.86904e-07
-9.64484e-08
6.3963e-07
-1.5802e-06
-9.10267e-08
7.0732e-07
-2.14838e-06
-9.30792e-08
5.77914e-07
-2.46889e-06
-1.08263e-07
3.20152e-07
-2.43674e-06
-1.34169e-07
-4.69157e-08
-1.98429e-06
-1.60406e-07
-4.82078e-07
-1.17132e-06
-1.69206e-07
-8.51285e-07
-3.19435e-07
-1.42183e-07
-8.83313e-07
-6.19193e-08
-3.217e-07
-2.68476e-07
-4.86339e-08
2.33607e-07
-9.38527e-07
-6.02317e-08
6.33834e-07
-1.67821e-06
-5.79911e-08
7.0665e-07
-2.28349e-06
-5.787e-08
5.70066e-07
-2.62299e-06
-6.38889e-08
2.95134e-07
-2.58418e-06
-7.51427e-08
-9.78463e-08
-2.09436e-06
-8.65664e-08
-5.63652e-07
-1.22088e-06
-8.96346e-08
-9.53058e-07
-3.17499e-07
-7.59264e-08
-9.69634e-07
-3.62332e-08
-3.43185e-07
-2.69556e-07
2.26525e-12
2.2092e-07
-9.51942e-07
1.41632e-12
6.22153e-07
-1.70722e-06
1.02605e-12
6.97286e-07
-2.32565e-06
7.96425e-13
5.60554e-07
-2.67222e-06
5.67755e-13
2.82689e-07
-2.6312e-06
3.71555e-13
-1.16167e-07
-2.12768e-06
2.08719e-13
-5.90084e-07
-1.23238e-06
9.12731e-14
-9.84939e-07
-3.12356e-07
-9.53465e-14
-9.95948e-07
-3.47589e-13
-3.48589e-07
-2.69556e-07
4.86384e-08
2.2092e-07
-9.51942e-07
6.02344e-08
6.22153e-07
-1.70722e-06
5.79932e-08
6.97286e-07
-2.32565e-06
5.78716e-08
5.60554e-07
-2.67222e-06
6.389e-08
2.82689e-07
-2.6312e-06
7.51434e-08
-1.16167e-07
-2.12768e-06
8.65667e-08
-5.90084e-07
-1.23238e-06
8.96347e-08
-9.84939e-07
-3.12356e-07
7.59262e-08
-9.95948e-07
3.62325e-08
-3.48589e-07
-2.68476e-07
8.35076e-08
2.33607e-07
-9.38527e-07
9.64504e-08
6.33835e-07
-1.67821e-06
9.10285e-08
7.0665e-07
-2.28349e-06
9.30806e-08
5.70066e-07
-2.623e-06
1.08264e-07
2.95134e-07
-2.58418e-06
1.3417e-07
-9.78468e-08
-2.09436e-06
1.60406e-07
-5.63652e-07
-1.22088e-06
1.69206e-07
-9.53058e-07
-3.17499e-07
1.42183e-07
-9.69634e-07
6.19187e-08
-3.43185e-07
-2.57453e-07
8.79381e-08
2.53022e-07
-8.86905e-07
8.62712e-08
6.39631e-07
-1.5802e-06
7.70049e-08
7.07321e-07
-2.14838e-06
8.33482e-08
5.77914e-07
-2.46889e-06
1.08619e-07
3.20152e-07
-2.43674e-06
1.48931e-07
-4.69163e-08
-1.98429e-06
1.90041e-07
-4.82079e-07
-1.17132e-06
2.07523e-07
-8.51285e-07
-3.19435e-07
1.73608e-07
-8.83314e-07
6.41838e-08
-3.217e-07
-2.13838e-07
4.96117e-08
2.52164e-07
-7.37239e-07
3.12358e-08
5.78436e-07
-1.31701e-06
2.24428e-08
6.34336e-07
-1.7962e-06
2.94416e-08
5.33094e-07
-2.07069e-06
5.23568e-08
3.30756e-07
-2.05265e-06
8.92621e-08
4.16268e-08
-1.68286e-06
1.28974e-07
-3.08727e-07
-1.00796e-06
1.49484e-07
-6.16857e-07
-2.88128e-07
1.26147e-07
-6.72374e-07
3.36051e-08
-2.57549e-07
-1.03251e-07
1.52862e-07
-3.82457e-07
3.10442e-07
-6.98188e-07
3.38174e-07
-9.67135e-07
2.98388e-07
-1.12973e-06
2.14951e-07
-1.1307e-06
9.02332e-08
-9.32424e-07
-6.93033e-08
-5.58803e-07
-2.24137e-07
-1.53823e-07
-2.78833e-07
-1.20217e-07
-2.55973e-07
-1.40101e-07
5.48936e-07
-7.76031e-07
-1.38047e-07
9.68544e-07
-1.33487e-06
-1.22869e-07
1.01988e-06
-1.80191e-06
-1.16974e-07
8.82403e-07
-2.08167e-06
-1.25762e-07
6.20475e-07
-2.08845e-06
-1.48793e-07
2.458e-07
-1.75676e-06
-1.77955e-07
-2.2303e-07
-1.11031e-06
-1.85397e-07
-6.85199e-07
-3.68392e-07
-1.36969e-07
-8.83778e-07
-3.9674e-09
-4.84643e-07
-5.87457e-07
-2.00525e-07
9.00044e-07
-1.66518e-06
-2.32689e-07
1.75079e-06
-2.79069e-06
-2.16116e-07
1.85309e-06
-3.69814e-06
-2.04812e-07
1.52839e-06
-4.20562e-06
-2.12987e-07
9.25464e-07
-4.16903e-06
-2.40472e-07
9.67178e-08
-3.48067e-06
-2.73472e-07
-9.01571e-07
-2.20824e-06
-2.77407e-07
-1.79727e-06
-7.66212e-07
-2.1219e-07
-2.03918e-06
-4.57569e-08
-9.81972e-07
-7.37049e-07
-1.70513e-07
9.60058e-07
-2.07654e-06
-2.16914e-07
1.96334e-06
-3.46143e-06
-2.06176e-07
2.08227e-06
-4.56236e-06
-1.94027e-07
1.66806e-06
-5.16092e-06
-1.96601e-07
9.02332e-07
-5.09012e-06
-2.14729e-07
-1.43462e-07
-4.22535e-06
-2.35629e-07
-1.38469e-06
-2.66013e-06
-2.35093e-07
-2.45882e-06
-9.10394e-07
-1.84918e-07
-2.66032e-06
-6.14733e-08
-1.21638e-06
-7.85439e-07
-9.36443e-08
9.42177e-07
-2.22752e-06
-1.25173e-07
1.98418e-06
-3.71704e-06
-1.20418e-07
2.11041e-06
-4.89605e-06
-1.12648e-07
1.6677e-06
-5.531e-06
-1.12067e-07
8.45556e-07
-5.4432e-06
-1.19484e-07
-2.80895e-07
-4.50252e-06
-1.28329e-07
-1.61164e-06
-2.81375e-06
-1.26896e-07
-2.75002e-06
-9.43513e-07
-1.01883e-07
-2.92291e-06
-4.04037e-08
-1.30777e-06
-7.95634e-07
1.55629e-12
9.22908e-07
-2.26917e-06
2.04599e-13
1.97052e-06
-3.79303e-06
-1.53135e-14
2.10073e-06
-4.99858e-06
2.72457e-13
1.65345e-06
-5.64649e-06
4.50188e-13
8.18536e-07
-5.55318e-06
5.21256e-13
-3.28966e-07
-4.58626e-06
5.41408e-13
-1.68533e-06
-2.85507e-06
5.94697e-13
-2.84303e-06
-9.46554e-07
4.68861e-13
-3.00635e-06
1.57027e-13
-1.33555e-06
-7.95634e-07
9.36472e-08
9.22908e-07
-2.26917e-06
1.25173e-07
1.97052e-06
-3.79303e-06
1.20418e-07
2.10073e-06
-4.99858e-06
1.12648e-07
1.65345e-06
-5.64649e-06
1.12068e-07
8.18536e-07
-5.55318e-06
1.19485e-07
-3.28966e-07
-4.58626e-06
1.28331e-07
-1.68533e-06
-2.85507e-06
1.26898e-07
-2.84303e-06
-9.46554e-07
1.01884e-07
-3.00635e-06
4.04041e-08
-1.33555e-06
-7.85438e-07
1.70515e-07
9.42177e-07
-2.22752e-06
2.16913e-07
1.98418e-06
-3.71704e-06
2.06176e-07
2.11041e-06
-4.89605e-06
1.94027e-07
1.6677e-06
-5.531e-06
1.96602e-07
8.45555e-07
-5.4432e-06
2.1473e-07
-2.80896e-07
-4.50252e-06
2.3563e-07
-1.61164e-06
-2.81375e-06
2.35094e-07
-2.75002e-06
-9.43513e-07
1.84919e-07
-2.92291e-06
6.14736e-08
-1.30777e-06
-7.37047e-07
2.00525e-07
9.60059e-07
-2.07653e-06
2.32687e-07
1.96335e-06
-3.46143e-06
2.16115e-07
2.08228e-06
-4.56236e-06
2.04812e-07
1.66806e-06
-5.16092e-06
2.12988e-07
9.02332e-07
-5.09012e-06
2.40473e-07
-1.43463e-07
-4.22535e-06
2.73473e-07
-1.38469e-06
-2.66013e-06
2.77408e-07
-2.45882e-06
-9.10394e-07
2.12191e-07
-2.66032e-06
4.57572e-08
-1.21638e-06
-5.87454e-07
1.40099e-07
9.00045e-07
-1.66517e-06
1.38044e-07
1.7508e-06
-2.79068e-06
1.22869e-07
1.85309e-06
-3.69814e-06
1.16974e-07
1.52839e-06
-4.20562e-06
1.25763e-07
9.25463e-07
-4.16903e-06
1.48794e-07
9.6717e-08
-3.48067e-06
1.77956e-07
-9.01572e-07
-2.20824e-06
1.85398e-07
-1.79727e-06
-7.66212e-07
1.3697e-07
-2.03919e-06
3.9677e-09
-9.81972e-07
-2.55972e-07
5.48933e-07
-7.76031e-07
9.68545e-07
-1.33487e-06
1.01988e-06
-1.80191e-06
8.82403e-07
-2.08167e-06
6.20475e-07
-2.08845e-06
2.458e-07
-1.75677e-06
-2.23029e-07
-1.11031e-06
-6.85198e-07
-3.68392e-07
-8.83777e-07
-4.84641e-07
-3.62723e-07
-2.19685e-07
1.13134e-06
-1.04808e-06
-2.33562e-07
1.88746e-06
-1.76876e-06
-2.1182e-07
1.95239e-06
-2.3811e-06
-1.92253e-07
1.68699e-06
-2.78223e-06
-1.87126e-07
1.20873e-06
-2.86154e-06
-2.01312e-07
5.26427e-07
-2.50538e-06
-2.27059e-07
-3.52132e-07
-1.6791e-06
-2.32944e-07
-1.27854e-06
-6.16622e-07
-1.68449e-07
-1.77781e-06
1.77485e-08
-1.11901e-06
-8.62345e-07
-3.038e-07
1.8465e-06
-2.34103e-06
-3.65039e-07
3.36096e-06
-3.84975e-06
-3.38068e-07
3.48805e-06
-5.07976e-06
-3.04543e-07
2.87069e-06
-5.82747e-06
-2.90105e-07
1.77616e-06
-5.90076e-06
-3.01097e-07
2.6979e-07
-5.10906e-06
-3.27011e-07
-1.59332e-06
-3.42234e-06
-3.27617e-07
-3.38932e-06
-1.29818e-06
-2.46415e-07
-4.08538e-06
-2.92285e-08
-2.23318e-06
-1.0981e-06
-2.49776e-07
2.00413e-06
-2.96151e-06
-3.23906e-07
3.78562e-06
-4.84203e-06
-3.03723e-07
3.92845e-06
-6.35015e-06
-2.70942e-07
3.14258e-06
-7.23948e-06
-2.5236e-07
1.75392e-06
-7.28852e-06
-2.54212e-07
-1.41309e-07
-6.27274e-06
-2.66484e-07
-2.461e-06
-4.17284e-06
-2.62616e-07
-4.62372e-06
-1.56546e-06
-2.0441e-07
-5.3097e-06
-5.36513e-08
-2.75742e-06
-1.17744e-06
-1.33835e-07
2.00368e-06
-3.19256e-06
-1.81304e-07
3.85669e-06
-5.22281e-06
-1.71166e-07
4.0081e-06
-6.84276e-06
-1.5146e-07
3.16817e-06
-7.78895e-06
-1.38543e-07
1.67793e-06
-7.8252e-06
-1.36117e-07
-3.62739e-07
-6.7147e-06
-1.39345e-07
-2.84927e-06
-4.44148e-06
-1.3604e-07
-5.14982e-06
-1.64174e-06
-1.08715e-07
-5.81834e-06
-3.73326e-08
-2.96583e-06
-1.19506e-06
1.29121e-12
1.98413e-06
-3.25614e-06
-8.67534e-14
3.8503e-06
-5.3347e-06
-3.15004e-13
4.00812e-06
-6.99205e-06
6.28939e-14
3.15934e-06
-7.95832e-06
2.35355e-13
1.64626e-06
-7.99147e-06
2.51345e-13
-4.31929e-07
-6.84987e-06
2.79808e-13
-2.96627e-06
-4.5187e-06
2.78786e-13
-5.31023e-06
-1.65742e-06
1.95965e-13
-5.97635e-06
1.44063e-13
-3.0303e-06
-1.19506e-06
1.33837e-07
1.98413e-06
-3.25614e-06
1.81303e-07
3.8503e-06
-5.3347e-06
1.71165e-07
4.00812e-06
-6.99205e-06
1.5146e-07
3.15934e-06
-7.95832e-06
1.38543e-07
1.64626e-06
-7.99147e-06
1.36117e-07
-4.31929e-07
-6.84987e-06
1.39345e-07
-2.96627e-06
-4.5187e-06
1.3604e-07
-5.31023e-06
-1.65742e-06
1.08716e-07
-5.97635e-06
3.73329e-08
-3.0303e-06
-1.17744e-06
2.49778e-07
2.00368e-06
-3.19256e-06
3.23905e-07
3.85669e-06
-5.22281e-06
3.03722e-07
4.0081e-06
-6.84276e-06
2.70942e-07
3.16817e-06
-7.78895e-06
2.52361e-07
1.67793e-06
-7.8252e-06
2.54212e-07
-3.6274e-07
-6.7147e-06
2.66485e-07
-2.84927e-06
-4.44148e-06
2.62616e-07
-5.14982e-06
-1.64174e-06
2.0441e-07
-5.81834e-06
5.36514e-08
-2.96583e-06
-1.0981e-06
3.03801e-07
2.00413e-06
-2.96151e-06
3.65037e-07
3.78563e-06
-4.84203e-06
3.38067e-07
3.92845e-06
-6.35015e-06
3.04543e-07
3.14258e-06
-7.23948e-06
2.90105e-07
1.75392e-06
-7.28852e-06
3.01097e-07
-1.4131e-07
-6.27274e-06
3.27011e-07
-2.461e-06
-4.17284e-06
3.27617e-07
-4.62372e-06
-1.56546e-06
2.46416e-07
-5.3097e-06
2.92284e-08
-2.75742e-06
-8.62344e-07
2.19685e-07
1.8465e-06
-2.34103e-06
2.33561e-07
3.36096e-06
-3.84975e-06
2.1182e-07
3.48805e-06
-5.07976e-06
1.92254e-07
2.87069e-06
-5.82747e-06
1.87126e-07
1.77616e-06
-5.90076e-06
2.01312e-07
2.69789e-07
-5.10906e-06
2.27059e-07
-1.59332e-06
-3.42234e-06
2.32944e-07
-3.38932e-06
-1.29818e-06
1.68449e-07
-4.08538e-06
-1.77487e-08
-2.23318e-06
-3.62724e-07
1.13134e-06
-1.04808e-06
1.88746e-06
-1.76876e-06
1.95239e-06
-2.3811e-06
1.68699e-06
-2.78223e-06
1.20873e-06
-2.86154e-06
5.26427e-07
-2.50538e-06
-3.52131e-07
-1.6791e-06
-1.27854e-06
-6.16622e-07
-1.7778e-06
-1.11901e-06
-4.79157e-07
-3.08064e-07
1.91856e-06
-1.3318e-06
-3.34148e-07
3.07425e-06
-2.2142e-06
-3.00086e-07
3.13487e-06
-2.99307e-06
-2.60588e-07
2.72646e-06
-3.57845e-06
-2.35437e-07
2.02955e-06
-3.83706e-06
-2.35076e-07
1.02011e-06
-3.57351e-06
-2.5841e-07
-3.57279e-07
-2.60521e-06
-2.76192e-07
-1.97064e-06
-1.09225e-06
-2.16444e-07
-3.07433e-06
1.73174e-08
-2.22858e-06
-1.14425e-06
-4.19613e-07
3.10231e-06
-3.01968e-06
-5.06351e-07
5.40859e-06
-4.9091e-06
-4.58031e-07
5.53542e-06
-6.50437e-06
-3.87955e-07
4.59333e-06
-7.61474e-06
-3.34219e-07
2.9853e-06
-8.00235e-06
-3.11507e-07
7.33831e-07
-7.32432e-06
-3.23796e-07
-2.20596e-06
-5.29315e-06
-3.34951e-07
-5.36173e-06
-2.24528e-06
-2.72711e-07
-7.07698e-06
-3.1347e-08
-4.42979e-06
-1.45953e-06
-3.39109e-07
3.38316e-06
-3.83556e-06
-4.37963e-07
6.09327e-06
-6.20628e-06
-3.97501e-07
6.23864e-06
-8.17445e-06
-3.29022e-07
5.05181e-06
-9.50286e-06
-2.70718e-07
3.01883e-06
-9.92339e-06
-2.34677e-07
2.02392e-07
-9.01472e-06
-2.31333e-07
-3.46213e-06
-6.46386e-06
-2.33942e-07
-7.2756e-06
-2.71135e-06
-1.99638e-07
-9.13528e-06
-5.31885e-08
-5.44693e-06
-1.56423e-06
-1.79175e-07
3.40797e-06
-4.13549e-06
-2.40807e-07
6.2308e-06
-6.69835e-06
-2.18851e-07
6.39231e-06
-8.81552e-06
-1.78082e-07
5.13439e-06
-1.02295e-05
-1.41761e-07
2.96294e-06
-1.06687e-05
-1.188e-07
-3.94053e-08
-9.66283e-06
-1.09642e-07
-3.97683e-06
-6.89654e-06
-1.09207e-07
-8.04084e-06
-2.86267e-06
-9.72982e-08
-9.95455e-06
-3.52911e-08
-5.8464e-06
-1.58629e-06
1.06278e-12
3.39124e-06
-4.21492e-06
-9.48633e-14
6.23812e-06
-6.83827e-06
-3.17152e-13
6.41261e-06
-9.0045e-06
-6.34118e-14
5.14749e-06
-1.04503e-05
-5.42006e-14
2.95029e-06
-1.08963e-05
-1.12742e-13
-1.04703e-07
-9.86354e-06
-7.17246e-14
-4.10868e-06
-7.0282e-06
-6.34979e-14
-8.25479e-06
-2.90368e-06
7.29022e-14
-1.01982e-05
1.68811e-13
-5.96927e-06
-1.58629e-06
1.79177e-07
3.39124e-06
-4.21492e-06
2.40807e-07
6.23812e-06
-6.83827e-06
2.1885e-07
6.41261e-06
-9.0045e-06
1.78081e-07
5.14749e-06
-1.04503e-05
1.41761e-07
2.95029e-06
-1.08963e-05
1.18799e-07
-1.04703e-07
-9.86354e-06
1.09642e-07
-4.10868e-06
-7.0282e-06
1.09207e-07
-8.25479e-06
-2.90368e-06
9.72983e-08
-1.01982e-05
3.52913e-08
-5.96927e-06
-1.56422e-06
3.3911e-07
3.40797e-06
-4.13549e-06
4.37962e-07
6.2308e-06
-6.69835e-06
3.975e-07
6.39231e-06
-8.81552e-06
3.29021e-07
5.13439e-06
-1.02295e-05
2.70718e-07
2.96294e-06
-1.06687e-05
2.34677e-07
-3.94052e-08
-9.66283e-06
2.31333e-07
-3.97683e-06
-6.89654e-06
2.33942e-07
-8.04084e-06
-2.86267e-06
1.99638e-07
-9.95455e-06
5.31886e-08
-5.8464e-06
-1.45953e-06
4.19614e-07
3.38316e-06
-3.83556e-06
5.0635e-07
6.09327e-06
-6.20628e-06
4.58031e-07
6.23864e-06
-8.17445e-06
3.87955e-07
5.05181e-06
-9.50286e-06
3.34219e-07
3.01883e-06
-9.92339e-06
3.11507e-07
2.02392e-07
-9.01472e-06
3.23796e-07
-3.46213e-06
-6.46386e-06
3.34951e-07
-7.2756e-06
-2.71135e-06
2.7271e-07
-9.13528e-06
3.13468e-08
-5.44693e-06
-1.14425e-06
3.08064e-07
3.10231e-06
-3.01968e-06
3.34147e-07
5.40859e-06
-4.9091e-06
3.00085e-07
5.53542e-06
-6.50437e-06
2.60589e-07
4.59333e-06
-7.61474e-06
2.35437e-07
2.9853e-06
-8.00235e-06
2.35076e-07
7.33831e-07
-7.32432e-06
2.58409e-07
-2.20596e-06
-5.29315e-06
2.76192e-07
-5.36173e-06
-2.24528e-06
2.16443e-07
-7.07698e-06
-1.73176e-08
-4.42979e-06
-4.79157e-07
1.91856e-06
-1.3318e-06
3.07425e-06
-2.2142e-06
3.13487e-06
-2.99307e-06
2.72646e-06
-3.57845e-06
2.02955e-06
-3.83706e-06
1.02011e-06
-3.57351e-06
-3.57279e-07
-2.60521e-06
-1.97064e-06
-1.09225e-06
-3.07433e-06
-2.22858e-06
-6.57747e-07
-4.1615e-07
2.99246e-06
-1.70281e-06
-4.46975e-07
4.56629e-06
-2.74745e-06
-3.80594e-07
4.56011e-06
-3.709e-06
-2.93352e-07
3.98136e-06
-4.54776e-06
-2.13812e-07
3.08212e-06
-5.12855e-06
-1.58917e-07
1.75982e-06
-5.14706e-06
-1.40532e-07
-1.98239e-07
-4.16294e-06
-1.77196e-07
-2.77756e-06
-2.04652e-06
-1.92494e-07
-4.99825e-06
-1.56634e-08
-4.25944e-06
-1.52815e-06
-5.56939e-07
4.77125e-06
-3.85394e-06
-6.60182e-07
7.94759e-06
-6.14118e-06
-5.60712e-07
8.00277e-06
-8.14422e-06
-4.10578e-07
6.7136e-06
-9.74001e-06
-2.63899e-07
4.63118e-06
-1.06642e-05
-1.49822e-07
1.64894e-06
-1.0398e-05
-8.64152e-08
-2.52632e-06
-8.21747e-06
-1.13481e-07
-7.60596e-06
-3.99084e-06
-1.71643e-07
-1.13245e-05
-5.99771e-08
-8.37631e-06
-1.9289e-06
-4.42623e-07
5.19774e-06
-4.87691e-06
-5.59398e-07
8.94049e-06
-7.76039e-06
-4.73327e-07
9.03474e-06
-1.02407e-05
-3.31504e-07
7.45305e-06
-1.21515e-05
-1.87548e-07
4.85331e-06
-1.3161e-05
-6.9819e-08
1.13184e-06
-1.26868e-05
2.35579e-09
-4.02504e-06
-9.90755e-06
-1.16171e-08
-1.01567e-05
-4.74778e-06
-8.38244e-08
-1.43829e-05
-6.15704e-08
-1.01931e-05
-2.05505e-06
-2.30912e-07
5.2513e-06
-5.23854e-06
-3.03154e-07
9.15805e-06
-8.35541e-06
-2.55643e-07
9.2915e-06
-1.10245e-05
-1.73263e-07
7.64521e-06
-1.30618e-05
-8.79023e-08
4.90063e-06
-1.41025e-05
-1.59472e-08
9.47448e-07
-1.35493e-05
2.68389e-08
-4.55455e-06
-1.05321e-05
1.92884e-08
-1.1089e-05
-5.01054e-06
-2.74022e-08
-1.55325e-05
-3.41093e-08
-1.08844e-05
-2.07796e-06
7.8046e-13
5.23829e-06
-5.32656e-06
-9.27657e-14
9.18357e-06
-8.51392e-06
-3.38437e-13
9.34433e-06
-1.12436e-05
-2.54129e-13
7.70391e-06
-1.33249e-05
-3.30684e-13
4.94364e-06
-1.43889e-05
-2.79992e-13
9.4342e-07
-1.38195e-05
-3.84023e-14
-4.65123e-06
-1.07324e-05
1.46474e-13
-1.13226e-05
-5.09435e-06
4.47896e-13
-1.58636e-05
3.79955e-13
-1.10977e-05
-2.07796e-06
2.30914e-07
5.23829e-06
-5.32656e-06
3.03154e-07
9.18357e-06
-8.51392e-06
2.55642e-07
9.34433e-06
-1.12436e-05
1.73263e-07
7.70391e-06
-1.33249e-05
8.79016e-08
4.94364e-06
-1.43889e-05
1.59467e-08
9.4342e-07
-1.38195e-05
-2.68391e-08
-4.65123e-06
-1.07324e-05
-1.92882e-08
-1.13226e-05
-5.09435e-06
2.7403e-08
-1.58636e-05
3.411e-08
-1.10977e-05
-2.05505e-06
4.42624e-07
5.2513e-06
-5.23854e-06
5.59398e-07
9.15805e-06
-8.35541e-06
4.73326e-07
9.2915e-06
-1.10245e-05
3.31504e-07
7.64521e-06
-1.30618e-05
1.87548e-07
4.90063e-06
-1.41025e-05
6.98185e-08
9.47449e-07
-1.35493e-05
-2.35582e-09
-4.55455e-06
-1.05321e-05
1.16174e-08
-1.1089e-05
-5.01054e-06
8.38251e-08
-1.55325e-05
6.15709e-08
-1.08844e-05
-1.9289e-06
5.5694e-07
5.19774e-06
-4.8769e-06
6.60181e-07
8.94049e-06
-7.76039e-06
5.60712e-07
9.03474e-06
-1.02407e-05
4.10578e-07
7.45304e-06
-1.21515e-05
2.63899e-07
4.85331e-06
-1.3161e-05
1.49821e-07
1.13184e-06
-1.26868e-05
8.64152e-08
-4.02504e-06
-9.90755e-06
1.13482e-07
-1.01567e-05
-4.74778e-06
1.71644e-07
-1.43829e-05
5.99774e-08
-1.01931e-05
-1.52815e-06
4.1615e-07
4.77125e-06
-3.85394e-06
4.46975e-07
7.94759e-06
-6.14118e-06
3.80594e-07
8.00277e-06
-8.14422e-06
2.93352e-07
6.7136e-06
-9.74001e-06
2.13811e-07
4.63118e-06
-1.06642e-05
1.58916e-07
1.64894e-06
-1.0398e-05
1.40532e-07
-2.52632e-06
-8.21747e-06
1.77196e-07
-7.60595e-06
-3.99084e-06
1.92495e-07
-1.13245e-05
1.56636e-08
-8.37631e-06
-6.57747e-07
2.99246e-06
-1.70281e-06
4.56629e-06
-2.74745e-06
4.56011e-06
-3.709e-06
3.98136e-06
-4.54776e-06
3.08212e-06
-5.12855e-06
1.75982e-06
-5.14706e-06
-1.98239e-07
-4.16294e-06
-2.77756e-06
-2.04652e-06
-4.99825e-06
-4.25944e-06
-9.73081e-07
-5.5316e-07
4.5187e-06
-2.20835e-06
-5.6537e-07
6.36693e-06
-3.33458e-06
-4.15591e-07
6.10194e-06
-4.39838e-06
-2.10726e-07
5.25588e-06
-5.47819e-06
1.74944e-08
4.14443e-06
-6.50674e-06
2.30159e-07
2.55821e-06
-7.08049e-06
3.84787e-07
-9.27282e-09
-6.41799e-06
3.34446e-07
-3.77452e-06
-3.74592e-06
1.00159e-07
-7.77048e-06
-8.64882e-08
-7.91887e-06
-2.10765e-06
-7.22003e-07
7.04774e-06
-4.89078e-06
-8.15771e-07
1.09811e-05
-7.44509e-06
-5.99019e-07
1.07405e-05
-9.69259e-06
-2.73373e-07
9.02375e-06
-1.16665e-05
9.12224e-08
6.5314e-06
-1.31922e-05
4.47609e-07
2.95711e-06
-1.3642e-05
7.02039e-07
-2.3937e-06
-1.18023e-05
6.55519e-07
-9.76676e-06
-6.61481e-06
2.63499e-07
-1.66753e-05
-1.12265e-07
-1.49653e-05
-2.5942e-06
-5.6212e-07
7.63206e-06
-6.1123e-06
-6.79105e-07
1.23219e-05
-9.34962e-06
-4.97035e-07
1.21701e-05
-1.21256e-05
-2.07554e-07
1.01632e-05
-1.44274e-05
1.19231e-07
7.12714e-06
-1.60106e-05
4.35578e-07
2.72705e-06
-1.6208e-05
6.53966e-07
-3.77962e-06
-1.37387e-05
6.1233e-07
-1.25828e-05
-7.56594e-06
2.65824e-07
-2.0558e-05
-7.7734e-08
-1.77936e-05
-2.73141e-06
-2.89111e-07
7.7097e-06
-6.51235e-06
-3.63537e-07
1.26234e-05
-1.00069e-05
-2.65259e-07
1.25542e-05
-1.29846e-05
-1.03873e-07
1.05192e-05
-1.54104e-05
7.84012e-08
7.36732e-06
-1.70138e-05
2.52824e-07
2.73358e-06
-1.71201e-05
3.68072e-07
-4.16234e-06
-1.44251e-05
3.41768e-07
-1.35134e-05
-7.90435e-06
1.52581e-07
-2.194e-05
-3.39113e-08
-1.88326e-05
-2.74838e-06
4.90567e-13
7.69755e-06
-6.59415e-06
-9.87025e-14
1.26658e-05
-1.01613e-05
-3.86297e-13
1.26462e-05
-1.32027e-05
-4.40885e-13
1.06414e-05
-1.5677e-05
-4.76708e-13
7.49634e-06
-1.73073e-05
-2.35449e-13
2.82657e-06
-1.74114e-05
8.05994e-14
-4.17912e-06
-1.46644e-05
1.29851e-13
-1.37278e-05
-8.03186e-06
2.69369e-13
-2.23436e-05
4.33144e-13
-1.91635e-05
-2.74838e-06
2.89112e-07
7.69755e-06
-6.59415e-06
3.63536e-07
1.26658e-05
-1.01613e-05
2.65258e-07
1.26462e-05
-1.32027e-05
1.03872e-07
1.06414e-05
-1.5677e-05
-7.84021e-08
7.49634e-06
-1.73073e-05
-2.52825e-07
2.82657e-06
-1.74114e-05
-3.68071e-07
-4.17912e-06
-1.46644e-05
-3.41768e-07
-1.37278e-05
-8.03186e-06
-1.52581e-07
-2.23436e-05
3.3912e-08
-1.91635e-05
-2.73141e-06
5.62121e-07
7.7097e-06
-6.51235e-06
6.79104e-07
1.26234e-05
-1.00069e-05
4.97034e-07
1.25542e-05
-1.29846e-05
2.07553e-07
1.05192e-05
-1.54104e-05
-1.19231e-07
7.36732e-06
-1.70138e-05
-4.35578e-07
2.73358e-06
-1.71201e-05
-6.53965e-07
-4.16234e-06
-1.44251e-05
-6.1233e-07
-1.35134e-05
-7.90435e-06
-2.65823e-07
-2.194e-05
7.77344e-08
-1.88326e-05
-2.5942e-06
7.22004e-07
7.63205e-06
-6.1123e-06
8.1577e-07
1.23219e-05
-9.34962e-06
5.99019e-07
1.21701e-05
-1.21256e-05
2.73372e-07
1.01632e-05
-1.44274e-05
-9.12231e-08
7.12714e-06
-1.60106e-05
-4.47609e-07
2.72705e-06
-1.6208e-05
-7.02038e-07
-3.77962e-06
-1.37387e-05
-6.55518e-07
-1.25828e-05
-7.56594e-06
-2.63498e-07
-2.0558e-05
1.12265e-07
-1.77936e-05
-2.10765e-06
5.5316e-07
7.04774e-06
-4.89078e-06
5.6537e-07
1.09811e-05
-7.44509e-06
4.15592e-07
1.07405e-05
-9.69259e-06
2.10725e-07
9.02375e-06
-1.16665e-05
-1.74949e-08
6.5314e-06
-1.31922e-05
-2.30159e-07
2.95712e-06
-1.3642e-05
-3.84786e-07
-2.3937e-06
-1.18023e-05
-3.34445e-07
-9.76676e-06
-6.61481e-06
-1.00159e-07
-1.66753e-05
8.64883e-08
-1.49653e-05
-9.73081e-07
4.5187e-06
-2.20835e-06
6.36693e-06
-3.33458e-06
6.10194e-06
-4.39838e-06
5.25588e-06
-5.47819e-06
4.14443e-06
-6.50674e-06
2.55821e-06
-7.0805e-06
-9.27268e-09
-6.41799e-06
-3.77451e-06
-3.74592e-06
-7.77048e-06
-7.91887e-06
-1.61863e-06
-7.36939e-07
6.87427e-06
-2.877e-06
-6.89328e-07
8.31462e-06
-3.76334e-06
-3.63261e-07
7.35154e-06
-4.60444e-06
6.58631e-08
6.03111e-06
-5.67014e-06
5.54108e-07
4.65603e-06
-7.06912e-06
1.08587e-06
2.87133e-06
-8.47017e-06
1.5279e-06
-1.36121e-07
-8.70715e-06
1.51354e-06
-5.05107e-06
-6.02326e-06
8.21305e-07
-1.12757e-05
-1.82433e-07
-1.37597e-05
-3.0705e-06
-9.28974e-07
1.03103e-05
-6.05623e-06
-9.70945e-07
1.42485e-05
-8.29838e-06
-5.33222e-07
1.31526e-05
-1.00939e-05
9.39511e-08
1.07912e-05
-1.17674e-05
8.21276e-07
7.93778e-06
-1.34053e-05
1.58384e-06
4.09708e-06
-1.45646e-05
2.16763e-06
-1.87416e-06
-1.38499e-05
2.09268e-06
-1.10606e-05
-9.0609e-06
1.08238e-06
-2.17253e-05
-2.33017e-07
-2.39757e-05
-3.61614e-06
-7.04046e-07
1.10233e-05
-7.39215e-06
-7.96014e-07
1.5923e-05
-1.02927e-05
-4.48485e-07
1.49859e-05
-1.24913e-05
7.73212e-08
1.23784e-05
-1.42628e-05
6.8638e-07
9.03347e-06
-1.56758e-05
1.30767e-06
4.41624e-06
-1.6353e-05
1.74679e-06
-2.68161e-06
-1.50462e-05
1.63987e-06
-1.34367e-05
-9.66824e-06
8.1182e-07
-2.56654e-05
-1.59264e-07
-2.75356e-05
-3.73995e-06
-3.56176e-07
1.11018e-05
-7.77214e-06
-4.22107e-07
1.62817e-05
-1.09067e-05
-2.41447e-07
1.54818e-05
-1.32486e-05
4.00602e-08
1.28983e-05
-1.5048e-05
3.66087e-07
9.48703e-06
-1.63717e-05
6.91234e-07
4.67372e-06
-1.68887e-05
9.08388e-07
-2.8069e-06
-1.54235e-05
8.36854e-07
-1.41756e-05
-9.9071e-06
4.06081e-07
-2.70507e-05
-6.71644e-08
-2.88318e-05
-3.73981e-06
2.29159e-13
1.10812e-05
-7.82135e-06
-1.67803e-13
1.63252e-05
-1.10142e-05
-5.99464e-13
1.55976e-05
-1.34015e-05
-8.13047e-13
1.30688e-05
-1.52252e-05
-7.1357e-13
9.6861e-06
-1.65563e-05
-2.67537e-13
4.84892e-06
-1.70736e-05
-3.59268e-14
-2.75348e-06
-1.5603e-05
-1.53909e-13
-1.43615e-05
-1.00425e-05
3.51576e-14
-2.74981e-05
3.09115e-13
-2.92732e-05
-3.73981e-06
3.56177e-07
1.10812e-05
-7.82135e-06
4.22106e-07
1.63252e-05
-1.10142e-05
2.41446e-07
1.55976e-05
-1.34015e-05
-4.00618e-08
1.30688e-05
-1.52252e-05
-3.66088e-07
9.6861e-06
-1.65563e-05
-6.91234e-07
4.84892e-06
-1.70736e-05
-9.08388e-07
-2.75348e-06
-1.5603e-05
-8.36854e-07
-1.43615e-05
-1.00425e-05
-4.06081e-07
-2.74981e-05
6.71651e-08
-2.92732e-05
-3.73995e-06
7.04047e-07
1.11018e-05
-7.77214e-06
7.96013e-07
1.62817e-05
-1.09067e-05
4.48484e-07
1.54818e-05
-1.32486e-05
-7.73226e-08
1.28983e-05
-1.5048e-05
-6.86381e-07
9.48703e-06
-1.63717e-05
-1.30767e-06
4.67372e-06
-1.68887e-05
-1.74679e-06
-2.8069e-06
-1.54235e-05
-1.63987e-06
-1.41756e-05
-9.9071e-06
-8.11819e-07
-2.70507e-05
1.59264e-07
-2.88318e-05
-3.61614e-06
9.28975e-07
1.10233e-05
-7.39215e-06
9.70945e-07
1.5923e-05
-1.02927e-05
5.33222e-07
1.49859e-05
-1.24913e-05
-9.39522e-08
1.23784e-05
-1.42628e-05
-8.21277e-07
9.03347e-06
-1.56758e-05
-1.58384e-06
4.41624e-06
-1.6353e-05
-2.16763e-06
-2.68161e-06
-1.50462e-05
-2.09268e-06
-1.34367e-05
-9.66824e-06
-1.08238e-06
-2.56654e-05
2.33017e-07
-2.75356e-05
-3.0705e-06
7.3694e-07
1.03103e-05
-6.05623e-06
6.89329e-07
1.42485e-05
-8.29838e-06
3.63261e-07
1.31526e-05
-1.00939e-05
-6.58638e-08
1.07912e-05
-1.17674e-05
-5.54109e-07
7.93778e-06
-1.34053e-05
-1.08587e-06
4.09708e-06
-1.45646e-05
-1.52789e-06
-1.87416e-06
-1.38499e-05
-1.51354e-06
-1.10606e-05
-9.0609e-06
-8.21305e-07
-2.17253e-05
1.82433e-07
-2.39757e-05
-1.61863e-06
6.87427e-06
-2.877e-06
8.31462e-06
-3.76334e-06
7.35154e-06
-4.60444e-06
6.03111e-06
-5.67014e-06
4.65603e-06
-7.06912e-06
2.87133e-06
-8.47017e-06
-1.36121e-07
-8.70715e-06
-5.05107e-06
-6.02326e-06
-1.12757e-05
-1.37597e-05
-2.88291e-06
-1.01651e-06
1.07737e-05
-3.38583e-06
-8.82458e-07
9.7e-06
-3.13735e-06
-3.11848e-07
7.41491e-06
-2.96683e-06
3.97996e-07
5.46259e-06
-3.37917e-06
1.18438e-06
3.88399e-06
-4.68648e-06
2.0599e-06
2.11873e-06
-6.89568e-06
2.86982e-06
-7.96746e-07
-8.68484e-06
2.93842e-06
-6.20033e-06
-7.45115e-06
1.63181e-06
-1.41412e-05
-6.15111e-07
-2.05957e-05
-4.89378e-06
-1.22682e-06
1.54144e-05
-6.79792e-06
-1.21518e-06
1.64853e-05
-7.06581e-06
-5.04783e-07
1.36134e-05
-6.80116e-06
4.51005e-07
1.04735e-05
-6.71469e-06
1.53892e-06
7.49676e-06
-7.26412e-06
2.69202e-06
4.01439e-06
-8.58472e-06
3.64165e-06
-1.32538e-06
-9.76958e-06
3.54118e-06
-1.04785e-05
-8.09654e-06
1.72121e-06
-2.34878e-05
-7.9606e-07
-3.18912e-05
-5.51628e-06
-8.99701e-07
1.62124e-05
-8.10179e-06
-9.78466e-07
1.82718e-05
-8.73979e-06
-4.4933e-07
1.55685e-05
-8.45207e-06
3.08318e-07
1.22334e-05
-7.93816e-06
1.17388e-06
8.8846e-06
-7.71962e-06
2.06876e-06
4.82096e-06
-8.14069e-06
2.74293e-06
-1.36183e-06
-8.83647e-06
2.5691e-06
-1.17689e-05
-7.39064e-06
1.16116e-06
-2.65512e-05
-5.28572e-07
-3.51937e-05
-5.61284e-06
-4.46407e-07
1.62613e-05
-8.38693e-06
-5.13521e-07
1.85908e-05
-9.15197e-06
-2.5018e-07
1.60477e-05
-8.85927e-06
1.41325e-07
1.27726e-05
-8.19029e-06
5.91652e-07
9.40028e-06
-7.69772e-06
1.04953e-06
5.20038e-06
-7.85179e-06
1.37678e-06
-1.28668e-06
-8.51119e-06
1.26369e-06
-1.22108e-05
-7.27901e-06
5.58904e-07
-2.76806e-05
-2.23472e-07
-3.64159e-05
-5.58716e-06
-8.99821e-14
1.62219e-05
-8.37564e-06
-4.35503e-13
1.86002e-05
-9.16165e-06
-1.00711e-12
1.61335e-05
-8.87169e-06
-1.25641e-12
1.29202e-05
-8.17713e-06
-9.39671e-13
9.58319e-06
-7.64672e-06
-1.75651e-13
5.36804e-06
-7.79568e-06
1.84515e-13
-1.22774e-06
-8.52604e-06
-1.05813e-13
-1.23675e-05
-7.36737e-06
1.43429e-13
-2.80978e-05
4.23834e-13
-3.6864e-05
-5.58716e-06
4.46406e-07
1.62219e-05
-8.37564e-06
5.1352e-07
1.86002e-05
-9.16165e-06
2.50179e-07
1.61335e-05
-8.87169e-06
-1.41328e-07
1.29202e-05
-8.17713e-06
-5.91654e-07
9.58319e-06
-7.64672e-06
-1.04953e-06
5.36804e-06
-7.79568e-06
-1.37678e-06
-1.22774e-06
-8.52604e-06
-1.26369e-06
-1.23675e-05
-7.36738e-06
-5.58904e-07
-2.80978e-05
2.23472e-07
-3.6864e-05
-5.61284e-06
8.997e-07
1.62613e-05
-8.38693e-06
9.78465e-07
1.85908e-05
-9.15197e-06
4.49329e-07
1.60477e-05
-8.85927e-06
-3.0832e-07
1.27726e-05
-8.19029e-06
-1.17388e-06
9.40028e-06
-7.69773e-06
-2.06876e-06
5.20038e-06
-7.85179e-06
-2.74293e-06
-1.28668e-06
-8.51119e-06
-2.5691e-06
-1.22108e-05
-7.27901e-06
-1.16116e-06
-2.76806e-05
5.28572e-07
-3.64159e-05
-5.51628e-06
1.22682e-06
1.62124e-05
-8.10179e-06
1.21518e-06
1.82718e-05
-8.73979e-06
5.04782e-07
1.55685e-05
-8.45207e-06
-4.51007e-07
1.22334e-05
-7.93816e-06
-1.53892e-06
8.8846e-06
-7.71962e-06
-2.69202e-06
4.82096e-06
-8.14069e-06
-3.64164e-06
-1.36183e-06
-8.83647e-06
-3.54118e-06
-1.17689e-05
-7.39064e-06
-1.72121e-06
-2.65512e-05
7.9606e-07
-3.51937e-05
-4.89379e-06
1.01651e-06
1.54144e-05
-6.79792e-06
8.82459e-07
1.64853e-05
-7.06581e-06
3.11847e-07
1.36134e-05
-6.80116e-06
-3.97997e-07
1.04735e-05
-6.71469e-06
-1.18438e-06
7.49676e-06
-7.26412e-06
-2.0599e-06
4.01439e-06
-8.58472e-06
-2.86982e-06
-1.32538e-06
-9.76958e-06
-2.93842e-06
-1.04785e-05
-8.09654e-06
-1.63181e-06
-2.34878e-05
6.15111e-07
-3.18912e-05
-2.88291e-06
1.07737e-05
-3.38583e-06
9.7e-06
-3.13735e-06
7.41491e-06
-2.96683e-06
5.46259e-06
-3.37917e-06
3.88399e-06
-4.68648e-06
2.11873e-06
-6.89568e-06
-7.96746e-07
-8.68484e-06
-6.20033e-06
-7.45115e-06
-1.41412e-05
-2.05957e-05
-2.91636e-06
-1.65755e-06
1.53476e-05
-3.18021e-07
-1.4675e-06
8.56916e-06
3.02712e-06
-6.78431e-07
4.7482e-06
5.36984e-06
1.82801e-07
2.93707e-06
6.42629e-06
1.09276e-06
1.73478e-06
5.84652e-06
2.07117e-06
6.27327e-07
3.17604e-06
3.11412e-06
-1.24039e-06
-1.05216e-06
3.26767e-06
-5.2398e-06
-3.58446e-06
1.38384e-06
-1.29927e-05
-2.15166e-06
-2.20285e-05
-5.24994e-06
-1.78594e-06
2.07927e-05
-2.06052e-06
-1.87259e-06
1.3701e-05
2.8073e-06
-1.04583e-06
9.11301e-06
7.08485e-06
3.81429e-08
6.34061e-06
1.0277e-05
1.18733e-06
4.21008e-06
1.18177e-05
2.41757e-06
2.1272e-06
1.08403e-05
3.58992e-06
-8.23702e-07
6.99515e-06
3.58155e-06
-6.9473e-06
2.1026e-06
1.22422e-06
-1.84356e-05
-2.03844e-06
-2.99019e-05
-5.93083e-06
-1.22486e-06
2.15822e-05
-2.90928e-06
-1.43146e-06
1.48091e-05
2.12898e-06
-8.84374e-07
1.03687e-05
6.98807e-06
-9.47067e-08
7.50716e-06
1.10988e-05
7.88286e-07
5.17295e-06
1.38277e-05
1.71945e-06
2.79014e-06
1.39791e-05
2.55282e-06
-4.76151e-07
1.05867e-05
2.50822e-06
-7.30312e-06
4.22004e-06
8.59348e-07
-1.98196e-05
-1.19392e-06
-3.18182e-05
-5.96832e-06
-5.86528e-07
2.15913e-05
-2.9841e-06
-7.30824e-07
1.4906e-05
2.07475e-06
-4.76035e-07
1.05805e-05
7.06642e-06
-8.93171e-08
7.77555e-06
1.14466e-05
3.60618e-07
5.44777e-06
1.45296e-05