/*--------------------------------*- C++ -*----------------------------------*\
  =========                 |
  \\      /  F ield         | OpenFOAM: The Open Source CFD Toolbox
   \\    /   O peration     | Website:  https://openfoam.org
    \\  /    A nd           | Version:  9
     \\/     M anipulation  |
\*---------------------------------------------------------------------------*/
FoamFile
{
    format      ascii;
    class       volVectorField;
    location    "0.2";
    object      U;
}
// * * * * * * * * * * * * * * * * * * * * * * * * * * * * * * * * * * * * * //

dimensions      [0 1 -1 0 0 0 0];

internalField   nonuniform List<vector> 
1000
(
(-0.000236619 -0.000263228 0.00042565)
(-0.00212178 -0.00011509 0.00106813)
(-0.00543164 -4.72066e-05 0.00121804)
(-0.00848202 -0.000100781 0.00111086)
(-0.0107304 -0.000257534 0.000841986)
(-0.0116271 -0.00048399 0.000408873)
(-0.0106642 -0.000721647 -0.000180171)
(-0.00767315 -0.000852027 -0.00076512)
(-0.00319472 -0.000715642 -0.000941193)
(-0.000351286 -0.000173183 -0.000264139)
(-0.000562766 -0.000744953 0.000683102)
(-0.00420357 -0.000604702 0.0020323)
(-0.0103537 -0.000491364 0.00233715)
(-0.0159074 -0.000578197 0.00202641)
(-0.0198475 -0.000869054 0.00132611)
(-0.021269 -0.00131119 0.000269926)
(-0.0193609 -0.00176637 -0.00106563)
(-0.0138667 -0.00198416 -0.0022508)
(-0.00581892 -0.00165869 -0.00239353)
(-0.000689019 -0.000527783 -0.000641238)
(-0.000670833 -0.000925494 0.000583358)
(-0.00505571 -0.0010184 0.0021893)
(-0.0124501 -0.000947631 0.00256775)
(-0.0190736 -0.00098695 0.00217211)
(-0.0237215 -0.00119257 0.00127975)
(-0.0253264 -0.00153509 -5.29369e-05)
(-0.0229342 -0.00188233 -0.00172005)
(-0.0162686 -0.00201225 -0.00313844)
(-0.00661142 -0.0016843 -0.00316766)
(-0.000652265 -0.000683562 -0.000812878)
(-0.000671059 -0.000696828 0.000440473)
(-0.00531148 -0.000849297 0.00210055)
(-0.01321 -0.000814606 0.00251219)
(-0.020275 -0.000818822 0.00210613)
(-0.0252181 -0.000918106 0.00116659)
(-0.0268955 -0.00109827 -0.000250405)
(-0.0242821 -0.00128179 -0.00202348)
(-0.0170951 -0.00133647 -0.00351169)
(-0.00674243 -0.00112786 -0.00346726)
(-0.000533823 -0.00051695 -0.000848744)
(-0.000654445 -0.000253769 0.000360408)
(-0.00536027 -0.000322141 0.00202178)
(-0.0134247 -0.000312458 0.00244751)
(-0.0206423 -0.000309335 0.00204936)
(-0.0256924 -0.000335648 0.00110873)
(-0.0273987 -0.000388097 -0.000322332)
(-0.0247052 -0.000442236 -0.0021186)
(-0.0173281 -0.000455921 -0.00362266)
(-0.00672723 -0.000387544 -0.00355094)
(-0.00046164 -0.000188743 -0.000849049)
(-0.000654445 0.000253817 0.000360409)
(-0.00536028 0.00032217 0.00202179)
(-0.0134247 0.00031248 0.00244751)
(-0.0206423 0.000309351 0.00204936)
(-0.0256924 0.00033566 0.00110873)
(-0.0273987 0.000388104 -0.000322333)
(-0.0247053 0.000442239 -0.0021186)
(-0.0173281 0.000455922 -0.00362266)
(-0.00672723 0.000387541 -0.00355094)
(-0.00046164 0.000188736 -0.00084905)
(-0.000671058 0.000696881 0.000440476)
(-0.00531149 0.000849325 0.00210055)
(-0.01321 0.000814626 0.00251219)
(-0.020275 0.000818837 0.00210613)
(-0.0252181 0.000918117 0.00116659)
(-0.0268955 0.00109828 -0.000250408)
(-0.0242821 0.00128179 -0.00202349)
(-0.0170951 0.00133647 -0.00351169)
(-0.00674243 0.00112786 -0.00346727)
(-0.000533821 0.000516943 -0.000848745)
(-0.000670827 0.000925536 0.000583368)
(-0.00505571 0.00101841 0.00218931)
(-0.0124501 0.000947645 0.00256775)
(-0.0190737 0.000986962 0.00217211)
(-0.0237215 0.00119258 0.00127975)
(-0.0253264 0.0015351 -5.29404e-05)
(-0.0229342 0.00188234 -0.00172005)
(-0.0162686 0.00201226 -0.00313845)
(-0.00661142 0.0016843 -0.00316767)
(-0.000652262 0.000683558 -0.00081288)
(-0.00056273 0.000744971 0.000683144)
(-0.00420355 0.000604684 0.00203234)
(-0.0103537 0.000491373 0.00233717)
(-0.0159074 0.000578208 0.00202642)
(-0.0198475 0.000869064 0.00132611)
(-0.021269 0.0013112 0.000269923)
(-0.0193609 0.00176638 -0.00106564)
(-0.0138667 0.00198416 -0.00225081)
(-0.00581892 0.0016587 -0.00239353)
(-0.000689014 0.000527784 -0.000641241)
(-0.000236583 0.000263187 0.00042569)
(-0.0021218 0.000115049 0.00106817)
(-0.00543168 4.7203e-05 0.00121805)
(-0.00848207 0.000100783 0.00111087)
(-0.0107304 0.000257538 0.000841986)
(-0.0116271 0.000483993 0.000408872)
(-0.0106642 0.00072165 -0.000180171)
(-0.00767316 0.000852032 -0.000765121)
(-0.00319472 0.000715647 -0.000941195)
(-0.000351283 0.000173186 -0.000264138)
(-0.000853499 -0.000788151 0.00301686)
(-0.00470205 -0.000757347 0.00566338)
(-0.010646 -0.000657596 0.00607356)
(-0.0160087 -0.000626032 0.00531363)
(-0.0199058 -0.000684412 0.00378089)
(-0.0214851 -0.00082726 0.00153054)
(-0.0199236 -0.00100588 -0.00129471)
(-0.0148171 -0.00105692 -0.00401645)
(-0.00689736 -0.000761724 -0.00505102)
(-0.00120126 7.81701e-05 -0.00245875)
(-0.00211597 -0.00188063 0.00490529)
(-0.0103977 -0.00204557 0.0103206)
(-0.0225401 -0.00185952 0.0111509)
(-0.033211 -0.00176873 0.00930424)
(-0.0406066 -0.00187572 0.00571045)
(-0.0432219 -0.00217231 0.00063992)
(-0.0396831 -0.00252952 -0.00539966)
(-0.0294024 -0.00259421 -0.0107118)
(-0.0139416 -0.0019365 -0.0118189)
(-0.0026125 -0.000203205 -0.00505193)
(-0.00266351 -0.00199081 0.00506363)
(-0.0130082 -0.00245586 0.0114688)
(-0.0280555 -0.00231822 0.0124648)
(-0.0411133 -0.00218921 0.0101111)
(-0.049993 -0.00224204 0.00554557)
(-0.0529323 -0.00248096 -0.000844082)
(-0.0483386 -0.00276108 -0.00835571)
(-0.0355837 -0.00277036 -0.014709)
(-0.0166636 -0.00215257 -0.0154564)
(-0.00301566 -0.000625169 -0.00626701)
(-0.00280566 -0.00137914 0.00481679)
(-0.0139076 -0.00181923 0.0114596)
(-0.0301314 -0.00174649 0.0125279)
(-0.0441538 -0.0016365 0.0100295)
(-0.0536307 -0.00163607 0.00514374)
(-0.0566825 -0.00175602 -0.00171378)
(-0.0516216 -0.00189735 -0.00975969)
(-0.0378111 -0.00188062 -0.0164695)
(-0.0174435 -0.00149869 -0.0169773)
(-0.00300872 -0.00055924 -0.00670892)
(-0.00281623 -0.000483072 0.0046354)
(-0.0141259 -0.000656999 0.0113039)
(-0.0307314 -0.000635477 0.0124062)
(-0.0450766 -0.000592574 0.0098942)
(-0.0547607 -0.000584304 0.00494368)
(-0.0578559 -0.000616259 -0.00203035)
(-0.0526351 -0.000656027 -0.0102221)
(-0.0384596 -0.000646847 -0.0170325)
(-0.0175984 -0.000523677 -0.0174541)
(-0.00295237 -0.000217983 -0.00683279)
(-0.00281623 0.000483105 0.0046354)
(-0.0141259 0.000657003 0.0113039)
(-0.0307314 0.000635477 0.0124062)
(-0.0450766 0.000592579 0.0098942)
(-0.0547607 0.000584313 0.00494368)
(-0.0578559 0.000616269 -0.00203035)
(-0.0526351 0.000656037 -0.0102221)
(-0.0384596 0.000646858 -0.0170325)
(-0.0175984 0.000523686 -0.0174541)
(-0.00295237 0.000217986 -0.00683278)
(-0.00280566 0.00137917 0.00481679)
(-0.0139076 0.00181923 0.0114596)
(-0.0301314 0.00174649 0.0125279)
(-0.0441538 0.00163651 0.0100295)
(-0.0536307 0.00163608 0.00514373)
(-0.0566825 0.00175603 -0.00171379)
(-0.0516216 0.00189737 -0.0097597)
(-0.0378111 0.00188063 -0.0164695)
(-0.0174435 0.0014987 -0.0169773)
(-0.00300872 0.000559243 -0.00670892)
(-0.00266349 0.00199083 0.00506364)
(-0.0130082 0.00245585 0.0114688)
(-0.0280555 0.00231821 0.0124648)
(-0.0411132 0.00218921 0.0101111)
(-0.049993 0.00224205 0.00554557)
(-0.0529323 0.00248097 -0.000844091)
(-0.0483386 0.00276109 -0.00835571)
(-0.0355837 0.00277038 -0.014709)
(-0.0166636 0.00215258 -0.0154564)
(-0.00301565 0.000625173 -0.00626701)
(-0.00211593 0.00188061 0.00490532)
(-0.0103976 0.00204553 0.0103206)
(-0.0225401 0.00185951 0.0111509)
(-0.033211 0.00176874 0.00930424)
(-0.0406066 0.00187573 0.00571045)
(-0.0432219 0.00217232 0.000639912)
(-0.0396831 0.00252953 -0.00539967)
(-0.0294024 0.00259423 -0.0107118)
(-0.0139416 0.00193652 -0.0118189)
(-0.0026125 0.000203209 -0.00505193)
(-0.00085346 0.000788107 0.00301686)
(-0.00470203 0.000757307 0.00566341)
(-0.010646 0.000657582 0.00607356)
(-0.0160087 0.000626032 0.00531362)
(-0.0199059 0.000684417 0.00378089)
(-0.0214851 0.000827265 0.00153054)
(-0.0199237 0.00100588 -0.0012947)
(-0.0148171 0.00105693 -0.00401644)
(-0.00689736 0.000761732 -0.00505102)
(-0.00120126 -7.81668e-05 -0.00245874)
(-0.00129473 -0.00125969 0.00808883)
(-0.00650863 -0.00132267 0.0137941)
(-0.0142155 -0.00118764 0.0143882)
(-0.0211437 -0.00107799 0.0124236)
(-0.0264019 -0.00105639 0.00877484)
(-0.02902 -0.00115039 0.00356375)
(-0.0278153 -0.00131548 -0.00295691)
(-0.0217498 -0.00135898 -0.00947466)
(-0.011056 -0.000954156 -0.0125716)
(-0.00231369 0.000223095 -0.00738426)
(-0.00328436 -0.00291277 0.0131831)
(-0.0149647 -0.00333529 0.0246695)
(-0.0313394 -0.00305644 0.025849)
(-0.0456246 -0.00276622 0.0212674)
(-0.0558941 -0.002671 0.0129388)
(-0.0603922 -0.00282958 0.00144602)
(-0.0571054 -0.00313431 -0.0122505)
(-0.0443334 -0.00317012 -0.0248441)
(-0.0228165 -0.0023155 -0.0287684)
(-0.00496091 1.52881e-05 -0.0146969)
(-0.00419784 -0.00296358 0.0141996)
(-0.0190006 -0.00374394 0.0277308)
(-0.0395666 -0.00349887 0.0290826)
(-0.0572509 -0.00313613 0.0232426)
(-0.0696898 -0.00295012 0.0126723)
(-0.0748374 -0.00300803 -0.00180007)
(-0.0703509 -0.00320014 -0.0188195)
(-0.0542738 -0.00317167 -0.0339282)
(-0.0276576 -0.00243354 -0.0374285)
(-0.00585669 -0.000517752 -0.0181428)
(-0.00446139 -0.00199104 0.0140851)
(-0.0204285 -0.0026614 0.0281489)
(-0.0426942 -0.00251036 0.0295783)
(-0.0617481 -0.00222656 0.0233283)
(-0.0750566 -0.00204694 0.0119701)
(-0.0804498 -0.00202558 -0.00358451)
(-0.0754422 -0.0020881 -0.0218708)
(-0.0579701 -0.00204425 -0.037905)
(-0.0292223 -0.00161957 -0.0410884)
(-0.00600101 -0.000509276 -0.0195116)
(-0.00449545 -0.00068525 0.0138831)
(-0.020782 -0.000940908 0.0280336)
(-0.0435907 -0.000891235 0.0295109)
(-0.0630949 -0.000785354 0.0231894)
(-0.0767012 -0.000711825 0.0116456)
(-0.0821885 -0.000691563 -0.00420054)
(-0.0770156 -0.000700415 -0.0228464)
(-0.0590795 -0.000681921 -0.0391645)
(-0.0296171 -0.000551566 -0.0422499)
(-0.00598373 -0.000203917 -0.0199351)
(-0.00449544 0.000685276 0.0138831)
(-0.020782 0.000940907 0.0280336)
(-0.0435907 0.000891229 0.029511)
(-0.0630949 0.000785355 0.0231894)
(-0.0767012 0.000711829 0.0116456)
(-0.0821885 0.000691568 -0.00420055)
(-0.0770156 0.00070042 -0.0228464)
(-0.0590795 0.000681926 -0.0391645)
(-0.0296171 0.000551569 -0.0422499)
(-0.00598373 0.00020392 -0.0199351)
(-0.00446138 0.00199107 0.0140851)
(-0.0204285 0.00266139 0.0281489)
(-0.0426942 0.00251035 0.0295783)
(-0.061748 0.00222656 0.0233283)
(-0.0750566 0.00204694 0.0119701)
(-0.0804498 0.00202558 -0.00358452)
(-0.0754422 0.00208811 -0.0218708)
(-0.0579701 0.00204425 -0.037905)
(-0.0292223 0.00161957 -0.0410884)
(-0.00600101 0.000509278 -0.0195116)
(-0.00419783 0.0029636 0.0141996)
(-0.0190006 0.00374392 0.0277308)
(-0.0395665 0.00349886 0.0290826)
(-0.0572508 0.00313613 0.0232426)
(-0.0696898 0.00295013 0.0126723)
(-0.0748374 0.00300803 -0.00180008)
(-0.0703509 0.00320014 -0.0188195)
(-0.0542738 0.00317167 -0.0339283)
(-0.0276576 0.00243354 -0.0374285)
(-0.00585669 0.000517752 -0.0181428)
(-0.00328434 0.00291277 0.0131831)
(-0.0149647 0.00333526 0.0246695)
(-0.0313393 0.00305643 0.0258491)
(-0.0456245 0.00276622 0.0212674)
(-0.0558941 0.00267101 0.0129387)
(-0.0603922 0.00282958 0.00144601)
(-0.0571054 0.00313431 -0.0122505)
(-0.0443334 0.00317013 -0.0248441)
(-0.0228165 0.0023155 -0.0287685)
(-0.00496091 -1.529e-05 -0.0146969)
(-0.00129472 0.00125968 0.00808882)
(-0.00650863 0.00132265 0.0137941)
(-0.0142155 0.00118764 0.0143882)
(-0.0211437 0.00107799 0.0124236)
(-0.0264019 0.00105639 0.00877484)
(-0.02902 0.00115039 0.00356375)
(-0.0278153 0.00131548 -0.0029569)
(-0.0217498 0.00135898 -0.00947465)
(-0.011056 0.000954155 -0.0125715)
(-0.00231369 -0.000223096 -0.00738425)
(-0.00180766 -0.00178228 0.0148705)
(-0.00844361 -0.00191999 0.0242869)
(-0.0178822 -0.00171606 0.0249644)
(-0.0264305 -0.0014993 0.0216333)
(-0.0334427 -0.00137635 0.0157539)
(-0.0379756 -0.00140837 0.00730423)
(-0.0383621 -0.00158431 -0.00377394)
(-0.0322965 -0.00171321 -0.0158432)
(-0.0185469 -0.00130716 -0.0231317)
(-0.00473366 0.000222376 -0.0155227)
(-0.00453034 -0.00406209 0.0241098)
(-0.0196101 -0.00470372 0.0429269)
(-0.0401032 -0.0042388 0.0442687)
(-0.0580988 -0.00363976 0.03654)
(-0.0720214 -0.0032244 0.0230408)
(-0.0801062 -0.00312925 0.00427579)
(-0.0794102 -0.00335488 -0.0190588)
(-0.0659324 -0.00351727 -0.0425275)
(-0.0378729 -0.00277349 -0.0530607)
(-0.00964008 -2.38816e-06 -0.0307105)
(-0.00578219 -0.00405613 0.0262406)
(-0.0249676 -0.00511732 0.0483621)
(-0.0508701 -0.00464485 0.0498662)
(-0.073289 -0.00388301 0.0400568)
(-0.0902498 -0.00325751 0.0229356)
(-0.0996988 -0.00291633 -0.000717846)
(-0.0981456 -0.0029317 -0.0296571)
(-0.0808621 -0.00298516 -0.0579445)
(-0.0460018 -0.00249781 -0.0687633)
(-0.0114239 -0.000529516 -0.0378098)
(-0.00614003 -0.0026799 0.026348)
(-0.0268377 -0.0035545 0.0493719)
(-0.0549136 -0.00323209 0.0509819)
(-0.0790999 -0.00264311 0.040519)
(-0.0972656 -0.00212272 0.0221574)
(-0.107281 -0.00178428 -0.00325655)
(-0.105387 -0.00169048 -0.0342639)
(-0.0865077 -0.00169349 -0.0643702)
(-0.0488385 -0.00149119 -0.0751932)
(-0.0118926 -0.000486374 -0.0406356)
(-0.00618287 -0.000912785 0.0261623)
(-0.02728 -0.00124051 0.0493645)
(-0.0560323 -0.00112851 0.0510599)
(-0.0807885 -0.000911147 0.0404992)
(-0.0993684 -0.000713767 0.021871)
(-0.109595 -0.000582218 -0.00397746)
(-0.10762 -0.000525322 -0.0355789)
(-0.0882513 -0.000521506 -0.066267)
(-0.0496637 -0.000476492 -0.077155)
(-0.0119867 -0.000187971 -0.041509)
(-0.00618287 0.000912806 0.0261623)
(-0.02728 0.00124051 0.0493645)
(-0.0560323 0.00112851 0.0510599)
(-0.0807885 0.000911146 0.0404992)
(-0.0993684 0.000713766 0.021871)
(-0.109595 0.000582216 -0.00397746)
(-0.10762 0.000525321 -0.0355789)
(-0.0882513 0.000521505 -0.066267)
(-0.0496637 0.000476494 -0.077155)
(-0.0119867 0.000187974 -0.041509)
(-0.00614002 0.00267992 0.026348)
(-0.0268377 0.0035545 0.0493719)
(-0.0549136 0.00323209 0.0509819)
(-0.0790999 0.00264311 0.040519)
(-0.0972656 0.00212272 0.0221574)
(-0.107281 0.00178427 -0.00325656)
(-0.105387 0.00169047 -0.0342639)
(-0.0865077 0.00169349 -0.0643701)
(-0.0488385 0.00149119 -0.0751932)
(-0.0118926 0.000486375 -0.0406356)
(-0.00578218 0.00405614 0.0262406)
(-0.0249676 0.00511732 0.0483621)
(-0.05087 0.00464484 0.0498662)
(-0.073289 0.00388301 0.0400568)
(-0.0902498 0.00325751 0.0229356)
(-0.0996988 0.00291632 -0.000717851)
(-0.0981456 0.0029317 -0.0296571)
(-0.0808621 0.00298515 -0.0579444)
(-0.0460018 0.00249781 -0.0687633)
(-0.0114239 0.000529515 -0.0378098)
(-0.00453034 0.00406209 0.0241098)
(-0.0196101 0.00470371 0.0429269)
(-0.0401032 0.0042388 0.0442687)
(-0.0580988 0.00363976 0.03654)
(-0.0720213 0.0032244 0.0230407)
(-0.0801062 0.00312924 0.00427578)
(-0.0794102 0.00335488 -0.0190588)
(-0.0659324 0.00351726 -0.0425275)
(-0.0378729 0.00277348 -0.0530607)
(-0.00964008 2.38665e-06 -0.0307104)
(-0.00180765 0.00178228 0.0148705)
(-0.00844362 0.00191998 0.0242869)
(-0.0178822 0.00171605 0.0249644)
(-0.0264305 0.0014993 0.0216333)
(-0.0334427 0.00137635 0.0157539)
(-0.0379756 0.00140836 0.00730423)
(-0.0383621 0.00158431 -0.00377394)
(-0.0322965 0.00171321 -0.0158432)
(-0.0185469 0.00130716 -0.0231317)
(-0.00473366 -0.000222378 -0.0155227)
(-0.00271338 -0.00242985 0.0240032)
(-0.0112158 -0.00259893 0.0376187)
(-0.0224358 -0.00220916 0.0380692)
(-0.0326115 -0.00172954 0.0332309)
(-0.0417521 -0.0013209 0.0252443)
(-0.0492641 -0.00108226 0.013565)
(-0.0530073 -0.00107967 -0.00297043)
(-0.0487806 -0.00135875 -0.0231513)
(-0.0324633 -0.00133459 -0.038625)
(-0.0100598 -2.29226e-05 -0.0301269)
(-0.00641347 -0.00544694 0.0384918)
(-0.0256663 -0.00621404 0.0657505)
(-0.050526 -0.00528475 0.0668972)
(-0.072401 -0.00398066 0.055844)
(-0.0907262 -0.00275599 0.037326)
(-0.104153 -0.0018566 0.0110549)
(-0.108811 -0.00143581 -0.0240065)
(-0.0974536 -0.00178357 -0.063635)
(-0.0637841 -0.00211355 -0.0883373)
(-0.0191595 -0.000387616 -0.0592738)
(-0.0080413 -0.00533448 0.0419678)
(-0.0324326 -0.0065912 0.0740197)
(-0.0639734 -0.00559145 0.075419)
(-0.0913684 -0.00398644 0.0616109)
(-0.113753 -0.00237573 0.0382781)
(-0.129355 -0.00106884 0.00527535)
(-0.133618 -0.00027094 -0.0381051)
(-0.118174 -0.000461056 -0.0860158)
(-0.0763782 -0.00123546 -0.113406)
(-0.0224293 -0.000689795 -0.0725356)
(-0.00847392 -0.00347073 0.0423531)
(-0.0346856 -0.00449511 0.0757656)
(-0.068849 -0.00379701 0.0774044)
(-0.0984201 -0.00259735 0.0628604)
(-0.122423 -0.00136031 0.0380378)
(-0.138886 -0.000321922 0.0027721)
(-0.142988 0.000313588 -0.0435584)
(-0.125903 0.000202773 -0.0946189)
(-0.0809024 -0.000476755 -0.123126)
(-0.023492 -0.000494093 -0.0776725)
(-0.00850722 -0.0011711 0.0422045)
(-0.035161 -0.00155272 0.0759216)
(-0.0701025 -0.00130804 0.0777432)
(-0.10035 -0.000873489 0.0631654)
(-0.12489 -0.000419234 0.0381045)
(-0.141716 -3.01921e-05 0.00234755)
(-0.145884 0.000194382 -0.0447952)
(-0.128359 0.000154704 -0.0968916)
(-0.0823619 -0.000103838 -0.125944)
(-0.0238257 -0.000169048 -0.0792402)
(-0.00850722 0.00117111 0.0422045)
(-0.035161 0.00155272 0.0759216)
(-0.0701025 0.00130803 0.0777432)
(-0.10035 0.000873485 0.0631654)
(-0.12489 0.000419228 0.0381045)
(-0.141716 3.0187e-05 0.00234755)
(-0.145884 -0.000194382 -0.0447952)
(-0.128359 -0.000154701 -0.0968916)
(-0.0823619 0.000103847 -0.125944)
(-0.0238257 0.000169057 -0.0792402)
(-0.00847392 0.00347074 0.0423531)
(-0.0346856 0.0044951 0.0757656)
(-0.068849 0.003797 0.0774045)
(-0.0984201 0.00259734 0.0628604)
(-0.122423 0.0013603 0.0380378)
(-0.138886 0.000321916 0.00277211)
(-0.142988 -0.000313589 -0.0435584)
(-0.125903 -0.000202771 -0.0946189)
(-0.0809024 0.00047676 -0.123126)
(-0.023492 0.000494098 -0.0776724)
(-0.0080413 0.00533449 0.0419678)
(-0.0324325 0.00659119 0.0740197)
(-0.0639734 0.00559144 0.075419)
(-0.0913684 0.00398644 0.0616109)
(-0.113753 0.00237572 0.0382781)
(-0.129355 0.00106883 0.00527535)
(-0.133618 0.00027094 -0.0381051)
(-0.118174 0.000461059 -0.0860157)
(-0.0763782 0.00123547 -0.113406)
(-0.0224293 0.000689798 -0.0725356)
(-0.00641346 0.00544694 0.0384918)
(-0.0256663 0.00621403 0.0657505)
(-0.050526 0.00528475 0.0668972)
(-0.072401 0.00398066 0.055844)
(-0.0907262 0.00275598 0.037326)
(-0.104153 0.00185659 0.0110549)
(-0.108811 0.00143581 -0.0240065)
(-0.0974536 0.00178357 -0.0636349)
(-0.0637841 0.00211356 -0.0883373)
(-0.0191595 0.000387618 -0.0592738)
(-0.00271338 0.00242985 0.0240031)
(-0.0112158 0.00259892 0.0376187)
(-0.0224358 0.00220916 0.0380691)
(-0.0326115 0.00172954 0.0332309)
(-0.0417521 0.00132089 0.0252443)
(-0.0492641 0.00108226 0.013565)
(-0.0530073 0.00107967 -0.00297043)
(-0.0487806 0.00135875 -0.0231513)
(-0.0324633 0.00133459 -0.038625)
(-0.0100598 2.29251e-05 -0.0301268)
(-0.00455422 -0.0032684 0.0367394)
(-0.0156338 -0.00332851 0.0541598)
(-0.0280146 -0.00244312 0.0532681)
(-0.0388703 -0.00128973 0.0463968)
(-0.0495598 -7.63733e-05 0.0363848)
(-0.0605565 0.00110224 0.0217618)
(-0.0696792 0.00190123 -0.000730923)
(-0.0705807 0.00153698 -0.032038)
(-0.0547231 0.000268528 -0.0615872)
(-0.0198872 -0.000473658 -0.0569185)
(-0.00967019 -0.007159 0.0579137)
(-0.0341507 -0.00776707 0.0937136)
(-0.0625252 -0.00570716 0.0934209)
(-0.0865877 -0.00275898 0.0786496)
(-0.107789 0.000502701 0.0556242)
(-0.126271 0.00373809 0.0224069)
(-0.138042 0.00609504 -0.0255778)
(-0.132743 0.00562758 -0.0870143)
(-0.0989702 0.00207694 -0.137129)
(-0.0342747 -0.00115181 -0.10994)
(-0.011705 -0.00683635 0.0629367)
(-0.0423147 -0.00805479 0.105274)
(-0.0784864 -0.00590211 0.10557)
(-0.108757 -0.00253667 0.0877601)
(-0.134367 0.00126048 0.059232)
(-0.155011 0.00495779 0.0179149)
(-0.16597 0.0075654 -0.0410885)
(-0.155873 0.00709887 -0.115081)
(-0.113995 0.00300548 -0.172572)
(-0.0386786 -0.00100682 -0.132743)
(-0.012166 -0.00436999 0.0636084)
(-0.0447886 -0.00541126 0.107859)
(-0.0838914 -0.00395155 0.108718)
(-0.11653 -0.00156966 0.0903698)
(-0.143831 0.00112249 0.0604508)
(-0.165293 0.00370075 0.0167097)
(-0.175931 0.00542828 -0.0460843)
(-0.164012 0.00504086 -0.124882)
(-0.119288 0.00221987 -0.185553)
(-0.0402709 -0.000540996 -0.141293)
(-0.0121576 -0.00145932 0.0634923)
(-0.0451902 -0.00185371 0.108203)
(-0.0850929 -0.00135097 0.109429)
(-0.118435 -0.000513574 0.0912366)
(-0.146316 0.000431072 0.0612507)
(-0.168192 0.00132479 0.0170798)
(-0.178977 0.00190088 -0.0467363)
(-0.16673 0.00175059 -0.127196)
(-0.12123 0.000786008 -0.189252)
(-0.0409074 -0.000152237 -0.143939)
(-0.0121576 0.00145933 0.0634923)
(-0.0451902 0.00185371 0.108203)
(-0.0850929 0.00135096 0.109429)
(-0.118435 0.000513566 0.0912366)
(-0.146316 -0.000431081 0.0612507)
(-0.168192 -0.0013248 0.0170798)
(-0.178977 -0.00190087 -0.0467363)
(-0.16673 -0.00175059 -0.127196)
(-0.12123 -0.000786003 -0.189252)
(-0.0409074 0.000152245 -0.143939)
(-0.012166 0.00437 0.0636084)
(-0.0447886 0.00541126 0.107859)
(-0.0838914 0.00395155 0.108718)
(-0.11653 0.00156965 0.0903698)
(-0.143831 -0.0011225 0.0604508)
(-0.165293 -0.00370075 0.0167097)
(-0.175931 -0.00542828 -0.0460843)
(-0.164012 -0.00504085 -0.124882)
(-0.119288 -0.00221986 -0.185553)
(-0.0402709 0.000541001 -0.141293)
(-0.011705 0.00683636 0.0629367)
(-0.0423147 0.00805479 0.105274)
(-0.0784864 0.0059021 0.10557)
(-0.108757 0.00253666 0.08776)
(-0.134367 -0.00126049 0.059232)
(-0.155011 -0.00495779 0.0179149)
(-0.16597 -0.00756539 -0.0410885)
(-0.155873 -0.00709886 -0.115081)
(-0.113995 -0.00300548 -0.172572)
(-0.0386786 0.00100682 -0.132743)
(-0.00967019 0.007159 0.0579137)
(-0.0341507 0.00776707 0.0937136)
(-0.0625252 0.00570716 0.0934209)
(-0.0865877 0.00275897 0.0786496)
(-0.107789 -0.000502707 0.0556242)
(-0.126271 -0.00373809 0.0224069)
(-0.138042 -0.00609503 -0.0255778)
(-0.132743 -0.00562757 -0.0870142)
(-0.0989702 -0.00207694 -0.137129)
(-0.0342747 0.00115181 -0.10994)
(-0.00455422 0.0032684 0.0367394)
(-0.0156338 0.00332851 0.0541598)
(-0.0280146 0.00244312 0.0532681)
(-0.0388703 0.00128973 0.0463968)
(-0.0495598 7.63682e-05 0.0363848)
(-0.0605565 -0.00110224 0.0217618)
(-0.0696792 -0.00190123 -0.000730922)
(-0.0705807 -0.00153697 -0.032038)
(-0.0547231 -0.000268524 -0.0615872)
(-0.0198872 0.000473659 -0.0569184)
(-0.00863479 -0.00442283 0.0558621)
(-0.0232249 -0.00412249 0.0735014)
(-0.0337954 -0.00216987 0.0683424)
(-0.0418592 0.000324925 0.0578682)
(-0.0510179 0.00310151 0.0454432)
(-0.0636382 0.00611928 0.0282924)
(-0.0789856 0.00866171 0.000379663)
(-0.0891845 0.00865787 -0.0440791)
(-0.0813762 0.00487476 -0.0941115)
(-0.0333013 -0.000901123 -0.104571)
(-0.0159124 -0.00938096 0.0855466)
(-0.0464396 -0.00933377 0.126193)
(-0.0734504 -0.00501169 0.1208)
(-0.0929171 0.000939252 0.100821)
(-0.109818 0.00778481 0.0737191)
(-0.127131 0.0151377 0.0354452)
(-0.143093 0.0210644 -0.0232248)
(-0.146771 0.0207494 -0.108683)
(-0.125717 0.0110756 -0.195817)
(-0.0478394 -0.00255594 -0.193241)
(-0.0183372 -0.0086654 0.0921385)
(-0.055567 -0.00948704 0.141231)
(-0.0907036 -0.0052679 0.136999)
(-0.115608 0.000995109 0.114248)
(-0.135117 0.00826865 0.0817313)
(-0.151975 0.0157605 0.0350098)
(-0.164297 0.0212377 -0.0359917)
(-0.161334 0.0201345 -0.137546)
(-0.134638 0.0100538 -0.238418)
(-0.0501459 -0.00211905 -0.227565)
(-0.0187382 -0.00542063 0.0929662)
(-0.0578776 -0.00630275 0.144544)
(-0.0958692 -0.00358115 0.141374)
(-0.122748 0.000620897 0.118577)
(-0.143181 0.00550307 0.0850905)
(-0.159795 0.0103872 0.0361091)
(-0.170756 0.0137018 -0.0390207)
(-0.165576 0.0126716 -0.14686)
(-0.137679 0.00616793 -0.253551)
(-0.0513507 -0.00108638 -0.24024)
(-0.0186428 -0.00178843 0.0928158)
(-0.0580254 -0.00214687 0.144992)
(-0.0966794 -0.00123469 0.14243)
(-0.124106 0.000200893 0.120065)
(-0.144909 0.00186177 0.086762)
(-0.161709 0.00349691 0.0374685)
(-0.17269 0.00455979 -0.0388588)
(-0.167326 0.00416592 -0.149064)
(-0.139372 0.00202021 -0.258163)
(-0.0521429 -0.000289503 -0.244411)
(-0.0186428 0.00178843 0.0928158)
(-0.0580254 0.00214686 0.144992)
(-0.0966794 0.00123467 0.14243)
(-0.124106 -0.000200909 0.120065)
(-0.144909 -0.00186178 0.086762)
(-0.161709 -0.00349691 0.0374685)
(-0.17269 -0.00455979 -0.0388588)
(-0.167326 -0.00416592 -0.149064)
(-0.139372 -0.00202021 -0.258163)
(-0.0521429 0.000289508 -0.244411)
(-0.0187382 0.00542064 0.0929662)
(-0.0578776 0.00630275 0.144544)
(-0.0958692 0.00358114 0.141374)
(-0.122748 -0.000620914 0.118577)
(-0.143181 -0.00550308 0.0850905)
(-0.159795 -0.0103872 0.0361091)
(-0.170756 -0.0137018 -0.0390207)
(-0.165576 -0.0126716 -0.14686)
(-0.137679 -0.00616792 -0.253551)
(-0.0513507 0.00108638 -0.24024)
(-0.0183372 0.0086654 0.0921385)
(-0.055567 0.00948704 0.141231)
(-0.0907036 0.0052679 0.136999)
(-0.115608 -0.000995122 0.114248)
(-0.135117 -0.00826866 0.0817313)
(-0.151975 -0.0157605 0.0350098)
(-0.164297 -0.0212377 -0.0359917)
(-0.161334 -0.0201345 -0.137546)
(-0.134638 -0.0100537 -0.238418)
(-0.0501459 0.00211905 -0.227565)
(-0.0159124 0.00938096 0.0855466)
(-0.0464396 0.00933378 0.126193)
(-0.0734504 0.00501169 0.1208)
(-0.0929171 -0.000939261 0.100821)
(-0.109818 -0.00778482 0.0737191)
(-0.127131 -0.0151376 0.0354452)
(-0.143093 -0.0210644 -0.0232248)
(-0.146771 -0.0207494 -0.108683)
(-0.125717 -0.0110757 -0.195817)
(-0.0478394 0.00255594 -0.193241)
(-0.00863479 0.00442283 0.055862)
(-0.0232249 0.00412249 0.0735014)
(-0.0337954 0.00216987 0.0683424)
(-0.0418592 -0.000324931 0.0578681)
(-0.0510179 -0.00310151 0.0454432)
(-0.0636382 -0.00611928 0.0282924)
(-0.0789856 -0.0086617 0.000379666)
(-0.0891845 -0.00865787 -0.0440791)
(-0.0813762 -0.00487476 -0.0941115)
(-0.0333013 0.000901121 -0.104571)
(-0.0177925 -0.00623532 0.0822991)
(-0.035495 -0.00541167 0.0912246)
(-0.0334483 -0.0019387 0.0776644)
(-0.0300207 0.00237033 0.0612107)
(-0.0304587 0.00699392 0.0458436)
(-0.0388147 0.0121859 0.0271995)
(-0.0577262 0.0171063 -0.00387355)
(-0.0795713 0.0177188 -0.060346)
(-0.0942677 0.0101781 -0.134901)
(-0.040307 -0.00378356 -0.181666)
(-0.0290325 -0.0126576 0.120032)
(-0.0644248 -0.0117455 0.156328)
(-0.0722438 -0.00446654 0.14082)
(-0.0700202 0.00505509 0.11291)
(-0.0671348 0.0156311 0.0823659)
(-0.0692024 0.0271868 0.0435377)
(-0.0802178 0.0373509 -0.0172385)
(-0.0917839 0.0374247 -0.119283)
(-0.105927 0.0195323 -0.247101)
(-0.0381701 -0.00877174 -0.303714)
(-0.032068 -0.0112333 0.127365)
(-0.0741735 -0.0117307 0.174577)
(-0.0882268 -0.00512929 0.161081)
(-0.0876575 0.0041272 0.130829)
(-0.0825275 0.0146514 0.0957354)
(-0.0784813 0.0256248 0.0497488)
(-0.0808181 0.034196 -0.0216144)
(-0.0828348 0.0324888 -0.140065)
(-0.0965337 0.0150282 -0.287098)
(-0.0327027 -0.0068506 -0.343144)
(-0.0323808 -0.00684926 0.128073)
(-0.0759433 -0.00770513 0.178375)
(-0.0920368 -0.00367851 0.166539)
(-0.0921419 0.00222982 0.13674)
(-0.0862602 0.00903446 0.101184)
(-0.0799528 0.0159617 0.0534589)
(-0.079329 0.0209804 -0.02148)
(-0.0787375 0.0193614 -0.1466)
(-0.0941428 0.00864856 -0.301365)
(-0.0322711 -0.00355272 -0.35752)
(-0.032171 -0.0022284 0.127819)
(-0.0756683 -0.00260944 0.178778)
(-0.0920686 -0.00130122 0.167774)
(-0.0923288 0.000664953 0.13861)
(-0.0863533 0.00293543 0.103395)
(-0.079682 0.00522267 0.055451)
(-0.0787656 0.00682051 -0.0206749)
(-0.0782426 0.00622103 -0.148515)
(-0.0948385 0.00278087 -0.306296)
(-0.0329913 -0.000993406 -0.362613)
(-0.032171 0.0022284 0.127819)
(-0.0756683 0.00260943 0.178778)
(-0.0920686 0.0013012 0.167774)
(-0.0923288 -0.000664979 0.13861)
(-0.0863533 -0.00293545 0.103395)
(-0.079682 -0.00522267 0.055451)
(-0.0787656 -0.0068205 -0.0206749)
(-0.0782426 -0.00622103 -0.148515)
(-0.0948385 -0.00278087 -0.306296)
(-0.0329913 0.000993413 -0.362613)
(-0.0323808 0.00684926 0.128073)
(-0.0759433 0.00770513 0.178375)
(-0.0920368 0.00367849 0.166539)
(-0.0921419 -0.00222985 0.13674)
(-0.0862602 -0.00903448 0.101184)
(-0.0799528 -0.0159617 0.0534589)
(-0.079329 -0.0209804 -0.02148)
(-0.0787376 -0.0193614 -0.1466)
(-0.0941428 -0.00864855 -0.301365)
(-0.0322711 0.00355273 -0.35752)
(-0.032068 0.0112333 0.127365)
(-0.0741735 0.0117307 0.174577)
(-0.0882269 0.00512928 0.161081)
(-0.0876575 -0.00412722 0.130829)
(-0.0825275 -0.0146514 0.0957354)
(-0.0784813 -0.0256248 0.0497488)
(-0.0808181 -0.034196 -0.0216144)
(-0.0828348 -0.0324888 -0.140065)
(-0.0965337 -0.0150282 -0.287098)
(-0.0327026 0.0068506 -0.343144)
(-0.0290325 0.0126576 0.120032)
(-0.0644248 0.0117455 0.156328)
(-0.0722438 0.00446653 0.14082)
(-0.0700202 -0.00505511 0.11291)
(-0.0671348 -0.0156311 0.0823659)
(-0.0692024 -0.0271868 0.0435377)
(-0.0802178 -0.0373509 -0.0172385)
(-0.0917839 -0.0374247 -0.119283)
(-0.105927 -0.0195323 -0.247101)
(-0.0381701 0.00877174 -0.303714)
(-0.0177925 0.00623533 0.0822991)
(-0.035495 0.00541167 0.0912246)
(-0.0334483 0.0019387 0.0776643)
(-0.0300207 -0.00237034 0.0612107)
(-0.0304587 -0.00699392 0.0458436)
(-0.0388147 -0.0121859 0.0271995)
(-0.0577262 -0.0171063 -0.00387356)
(-0.0795713 -0.0177188 -0.060346)
(-0.0942677 -0.0101781 -0.134901)
(-0.040307 0.00378355 -0.181666)
(-0.0243675 -0.010389 0.152798)
(-0.0247212 -0.00918811 0.10021)
(0.0163873 -0.00425931 0.0641836)
(0.0442116 0.00140582 0.0429974)
(0.0613419 0.00691374 0.0276881)
(0.0645887 0.0129246 0.011727)
(0.0475149 0.0193206 -0.0146749)
(0.0173608 0.0200672 -0.0700566)
(-0.0440758 0.00822826 -0.163722)
(-0.00704961 -0.0143132 -0.251985)
(-0.0441417 -0.0197192 0.211992)
(-0.0500068 -0.0188641 0.16723)
(0.0047235 -0.00965784 0.121308)
(0.0512919 0.00155847 0.0882773)
(0.0888606 0.0132551 0.0608228)
(0.113986 0.0257686 0.031289)
(0.114701 0.0385738 -0.0133655)
(0.10262 0.0400341 -0.100679)
(0.0226231 0.0157337 -0.246575)
(0.0376013 -0.0247875 -0.360765)
(-0.0490846 -0.0157936 0.221191)
(-0.0585533 -0.017534 0.183825)
(-0.00415057 -0.0103623 0.139181)
(0.0465357 -0.00056862 0.104692)
(0.0915268 0.0104367 0.0743263)
(0.127744 0.0219421 0.0404155)
(0.139534 0.0325758 -0.010107)
(0.139311 0.0323614 -0.106574)
(0.0558052 0.0108636 -0.268311)
(0.0543724 -0.0162716 -0.388019)
(-0.0493317 -0.00911192 0.221491)
(-0.0590947 -0.0110637 0.186204)
(-0.0051185 -0.0070803 0.143023)
(0.0463136 -0.00117859 0.109247)
(0.0932082 0.0056669 0.0788639)
(0.132851 0.0128482 0.0439444)
(0.147627 0.0191319 -0.00874596)
(0.149993 0.0186832 -0.108914)
(0.063043 0.00664237 -0.276374)
(0.0566383 -0.00783645 -0.397652)
(-0.0489041 -0.00289165 0.220916)