/*--------------------------------*- C++ -*----------------------------------*\
  =========                 |
  \\      /  F ield         | OpenFOAM: The Open Source CFD Toolbox
   \\    /   O peration     | Website:  https://openfoam.org
    \\  /    A nd           | Version:  9
     \\/     M anipulation  |
\*---------------------------------------------------------------------------*/
FoamFile
{
    format      ascii;
    class       volVectorField;
    location    "0.16";
    object      U;
}
// * * * * * * * * * * * * * * * * * * * * * * * * * * * * * * * * * * * * * //

dimensions      [0 1 -1 0 0 0 0];

internalField   nonuniform List<vector> 
1000
(
(-0.000325429 -0.000220984 0.000483301)
(-0.00238762 -5.83643e-05 0.00112603)
(-0.00580389 7.74236e-06 0.00122798)
(-0.00882934 -3.92992e-05 0.00106084)
(-0.0109628 -0.000170656 0.000737665)
(-0.0117335 -0.000353454 0.000271387)
(-0.0107259 -0.000549573 -0.000326435)
(-0.00780781 -0.000664114 -0.000906228)
(-0.00344894 -0.000565789 -0.0011004)
(-0.000506338 -0.000122303 -0.000423853)
(-0.000697279 -0.000590194 0.000771044)
(-0.00453401 -0.000391942 0.00208641)
(-0.0106784 -0.00027185 0.00228903)
(-0.0160089 -0.000332214 0.00188839)
(-0.0196248 -0.000553141 0.00114006)
(-0.0207972 -0.000886505 9.8019e-05)
(-0.0188864 -0.00123494 -0.00116608)
(-0.0136889 -0.0014179 -0.00229269)
(-0.00606355 -0.0011976 -0.00249867)
(-0.000913791 -0.000343539 -0.000864929)
(-0.000797386 -0.000696023 0.000712104)
(-0.0052865 -0.000694748 0.00225821)
(-0.0124863 -0.000603789 0.00251524)
(-0.0186863 -0.000607188 0.002036)
(-0.0228546 -0.000734227 0.00113054)
(-0.0241504 -0.000961489 -0.000125911)
(-0.0218446 -0.00119513 -0.0016369)
(-0.0157215 -0.00129367 -0.00294876)
(-0.00680054 -0.00108847 -0.00309406)
(-0.000928151 -0.000417637 -0.00100926)
(-0.00078642 -0.000509505 0.00060429)
(-0.00545641 -0.00057934 0.00219589)
(-0.0130277 -0.000525697 0.00248031)
(-0.0195424 -0.000505745 0.00199851)
(-0.0239158 -0.000553728 0.00106873)
(-0.0252598 -0.000658507 -0.000233631)
(-0.0228029 -0.000769754 -0.00180494)
(-0.0163239 -0.000806605 -0.00316091)
(-0.00691358 -0.000682914 -0.00326786)
(-0.000852572 -0.000305757 -0.00102113)
(-0.000765788 -0.000183335 0.000543707)
(-0.00546836 -0.000219529 0.00213575)
(-0.0131464 -0.00020248 0.00243236)
(-0.0197587 -0.000191338 0.0019607)
(-0.024201 -0.000200737 0.00103717)
(-0.0255651 -0.000228233 -0.000265551)
(-0.0230611 -0.000258509 -0.001844)
(-0.0164668 -0.000266478 -0.00320647)
(-0.00690066 -0.000227112 -0.0033004)
(-0.000804655 -0.000110019 -0.0010121)
(-0.000765788 0.000183397 0.000543708)
(-0.00546836 0.000219566 0.00213575)
(-0.0131464 0.000202506 0.00243236)
(-0.0197587 0.000191359 0.0019607)
(-0.024201 0.000200752 0.00103717)
(-0.0255651 0.000228243 -0.000265552)
(-0.0230611 0.000258516 -0.001844)
(-0.0164668 0.000266481 -0.00320647)
(-0.00690066 0.000227111 -0.0033004)
(-0.000804655 0.000110009 -0.0010121)
(-0.00078642 0.000509575 0.000604293)
(-0.00545641 0.000579376 0.0021959)
(-0.0130277 0.000525723 0.00248031)
(-0.0195424 0.000505765 0.00199851)
(-0.0239158 0.000553743 0.00106873)
(-0.0252598 0.000658517 -0.000233633)
(-0.0228029 0.00076976 -0.00180494)
(-0.0163239 0.000806608 -0.00316091)
(-0.00691358 0.000682914 -0.00326786)
(-0.000852571 0.000305748 -0.00102113)
(-0.000797378 0.00069608 0.000712116)
(-0.0052865 0.000694769 0.00225824)
(-0.0124863 0.000603808 0.00251525)
(-0.0186863 0.000607204 0.002036)
(-0.0228546 0.000734241 0.00113054)
(-0.0241504 0.000961499 -0.000125914)
(-0.0218446 0.00119513 -0.0016369)
(-0.0157215 0.00129368 -0.00294877)
(-0.00680053 0.00108848 -0.00309406)
(-0.000928146 0.000417631 -0.00100926)
(-0.00069723 0.00059022 0.0007711)
(-0.00453399 0.000391921 0.00208646)
(-0.0106784 0.000271864 0.00228905)
(-0.016009 0.000332229 0.00188839)
(-0.0196248 0.000553154 0.00114006)
(-0.0207972 0.000886516 9.8017e-05)
(-0.0188864 0.00123495 -0.00116608)
(-0.0136889 0.0014179 -0.00229269)
(-0.00606355 0.00119761 -0.00249867)
(-0.000913784 0.00034354 -0.000864933)
(-0.00032538 0.00022093 0.000483356)
(-0.00238764 5.83112e-05 0.00112608)
(-0.00580393 -7.74591e-06 0.00122799)
(-0.0088294 3.93026e-05 0.00106084)
(-0.0109628 0.00017066 0.000737665)
(-0.0117335 0.000353458 0.000271387)
(-0.0107259 0.000549577 -0.000326435)
(-0.00780783 0.000664118 -0.000906228)
(-0.00344894 0.000565796 -0.0011004)
(-0.000506334 0.000122308 -0.000423853)
(-0.000969489 -0.000682622 0.00311814)
(-0.00501807 -0.000588774 0.00567816)
(-0.011017 -0.000475318 0.00587576)
(-0.0162292 -0.000432312 0.00489855)
(-0.0198499 -0.000463773 0.00320771)
(-0.0211696 -0.000561316 0.000908295)
(-0.0195241 -0.000692901 -0.00185143)
(-0.0146038 -0.000736772 -0.00446754)
(-0.00705628 -0.000519541 -0.0055135)
(-0.0013855 0.000127309 -0.00296251)
(-0.00223889 -0.00152706 0.0050341)
(-0.010561 -0.00150703 0.0101697)
(-0.0223186 -0.00128261 0.0105839)
(-0.0322728 -0.00116292 0.00844525)
(-0.0388758 -0.00120081 0.00479312)
(-0.0409461 -0.00138508 -4.47592e-05)
(-0.0374286 -0.00162065 -0.00562656)
(-0.027891 -0.00167278 -0.010552)
(-0.0136481 -0.00121958 -0.0118078)
(-0.00280456 1.77767e-05 -0.00560446)
(-0.00270548 -0.00150193 0.00525896)
(-0.0127532 -0.00171842 0.0112721)
(-0.0268819 -0.00153232 0.0117941)
(-0.0387175 -0.00137635 0.00921343)
(-0.0464471 -0.00135822 0.00478593)
(-0.0487156 -0.00147846 -0.00105782)
(-0.0443415 -0.00163317 -0.00774433)
(-0.0328783 -0.00163611 -0.0134911)
(-0.0159226 -0.00124717 -0.0145784)
(-0.00318626 -0.000277444 -0.00659776)
(-0.00278771 -0.000998987 0.00508482)
(-0.0133563 -0.00123687 0.0112977)
(-0.028312 -0.00112692 0.0118825)
(-0.0408091 -0.0010037 0.0092141)
(-0.0489402 -0.000960453 0.00459138)
(-0.0512793 -0.00100246 -0.00153568)
(-0.0465896 -0.00106895 -0.00854849)
(-0.034418 -0.00105277 -0.0145321)
(-0.0164741 -0.00082682 -0.0155082)
(-0.00318861 -0.000277616 -0.00687179)
(-0.00277603 -0.00034348 0.00494854)
(-0.013453 -0.000441191 0.0111812)
(-0.0286405 -0.000406031 0.0117986)
(-0.0413337 -0.000359857 0.00913765)
(-0.0495925 -0.000338501 0.00449608)
(-0.0519622 -0.000345055 -0.00167815)
(-0.0471819 -0.000360906 -0.00875932)
(-0.0347951 -0.000352482 -0.0147973)
(-0.016553 -0.000282115 -0.0157389)
(-0.00314642 -0.000111768 -0.00692482)
(-0.00277603 0.00034352 0.00494854)
(-0.013453 0.00044119 0.0111812)
(-0.0286405 0.000406025 0.0117986)
(-0.0413337 0.000359861 0.00913765)
(-0.0495925 0.000338509 0.00449608)
(-0.0519622 0.000345065 -0.00167815)
(-0.0471819 0.000360916 -0.00875932)
(-0.0347951 0.000352493 -0.0147973)
(-0.016553 0.000282125 -0.0157389)
(-0.00314642 0.00011177 -0.00692482)
(-0.0027877 0.000999027 0.00508482)
(-0.0133563 0.00123687 0.0112977)
(-0.028312 0.00112691 0.0118825)
(-0.0408091 0.00100371 0.0092141)
(-0.0489402 0.000960462 0.00459137)
(-0.0512793 0.00100247 -0.00153568)
(-0.0465896 0.00106896 -0.0085485)
(-0.034418 0.00105278 -0.0145321)
(-0.0164741 0.000826832 -0.0155083)
(-0.00318861 0.000277618 -0.00687179)
(-0.00270546 0.00150195 0.00525896)
(-0.0127532 0.0017184 0.0112722)
(-0.0268819 0.00153231 0.0117941)
(-0.0387175 0.00137635 0.00921343)
(-0.0464471 0.00135823 0.00478592)
(-0.0487156 0.00147847 -0.00105783)
(-0.0443415 0.00163318 -0.00774433)
(-0.0328783 0.00163613 -0.0134911)
(-0.0159226 0.00124718 -0.0145784)
(-0.00318625 0.000277449 -0.00659776)
(-0.00223884 0.00152704 0.00503414)
(-0.0105609 0.00150698 0.0101698)
(-0.0223186 0.00128259 0.0105839)
(-0.0322728 0.00116292 0.00844526)
(-0.0388758 0.00120082 0.00479312)
(-0.0409461 0.00138509 -4.47672e-05)
(-0.0374286 0.00162067 -0.00562657)
(-0.027891 0.0016728 -0.010552)
(-0.013648 0.0012196 -0.0118078)
(-0.00280455 -1.77705e-05 -0.00560446)
(-0.000969435 0.000682564 0.00311814)
(-0.00501805 0.00058872 0.0056782)
(-0.011017 0.000475299 0.00587576)
(-0.0162292 0.00043231 0.00489854)
(-0.0198499 0.000463777 0.00320771)
(-0.0211696 0.000561322 0.000908294)
(-0.0195241 0.000692906 -0.00185143)
(-0.0146038 0.00073678 -0.00446754)
(-0.00705628 0.000519553 -0.0055135)
(-0.0013855 -0.000127303 -0.0029625)
(-0.00141046 -0.00108729 0.00808922)
(-0.00680213 -0.00104876 0.0134846)
(-0.0144933 -0.000890437 0.0136111)
(-0.0211449 -0.000773034 0.0112193)
(-0.0259456 -0.00073033 0.00730037)
(-0.0280943 -0.000778685 0.00207669)
(-0.0266431 -0.000892017 -0.00416638)
(-0.0207845 -0.000922167 -0.0102783)
(-0.0107874 -0.000618465 -0.0132153)
(-0.00241609 0.000270082 -0.00815272)
(-0.00333537 -0.00236554 0.0130674)
(-0.0147942 -0.00249938 0.0237475)
(-0.0303593 -0.00216883 0.0240574)
(-0.0434345 -0.00187243 0.0189643)
(-0.0523937 -0.00173715 0.0106771)
(-0.0558889 -0.00179995 -0.000110047)
(-0.0523848 -0.00198512 -0.0125448)
(-0.0406034 -0.00200431 -0.0239312)
(-0.0212543 -0.00140073 -0.0278235)
(-0.00488148 0.000242074 -0.015146)
(-0.00408003 -0.00223834 0.014076)
(-0.018065 -0.00264528 0.0265432)
(-0.0369551 -0.00234874 0.026938)
(-0.0526358 -0.00200228 0.0207803)
(-0.0631921 -0.00179803 0.0107344)
(-0.0670921 -0.00178004 -0.00228422)
(-0.0626025 -0.00186575 -0.0172117)
(-0.0482924 -0.00183557 -0.0305389)
(-0.0250682 -0.00135868 -0.0343112)
(-0.00563734 -0.000153546 -0.0178806)
(-0.00423074 -0.00144288 0.0140147)
(-0.0189859 -0.0018193 0.0269238)
(-0.0390304 -0.00163368 0.0273975)
(-0.0556214 -0.00137587 0.0209798)
(-0.0667464 -0.00120016 0.0104381)
(-0.0707965 -0.00114181 -0.00326138)
(-0.0659577 -0.00115147 -0.0189644)
(-0.0507359 -0.00111358 -0.032903)
(-0.026106 -0.000856689 -0.0365649)
(-0.00573672 -0.000215907 -0.0187646)
(-0.00422354 -0.000486881 0.013859)
(-0.0191372 -0.000633627 0.0268351)
(-0.0394967 -0.00057213 0.0273619)
(-0.0563511 -0.000478401 0.0209297)
(-0.0676544 -0.000409882 0.0103113)
(-0.0717666 -0.000379926 -0.00352479)
(-0.0668397 -0.000374646 -0.01941)
(-0.0513551 -0.000359066 -0.03351)
(-0.0263106 -0.000283439 -0.037152)
(-0.00571455 -9.38008e-05 -0.0189869)
(-0.00422354 0.000486913 0.013859)
(-0.0191372 0.000633619 0.0268351)
(-0.0394967 0.000572119 0.0273619)
(-0.0563511 0.000478401 0.0209297)
(-0.0676544 0.000409886 0.0103113)
(-0.0717666 0.000379929 -0.0035248)
(-0.0668397 0.000374649 -0.01941)
(-0.0513551 0.000359069 -0.03351)
(-0.0263106 0.000283439 -0.037152)
(-0.00571455 9.38013e-05 -0.0189869)
(-0.00423074 0.00144291 0.0140147)
(-0.0189859 0.00181929 0.0269238)
(-0.0390304 0.00163367 0.0273975)
(-0.0556214 0.00137587 0.0209798)
(-0.0667464 0.00120016 0.0104381)
(-0.0707965 0.00114181 -0.00326139)
(-0.0659577 0.00115148 -0.0189644)
(-0.0507359 0.00111359 -0.0329031)
(-0.0261061 0.000856691 -0.0365649)
(-0.00573672 0.000215908 -0.0187646)
(-0.00408002 0.00223836 0.014076)
(-0.018065 0.00264525 0.0265432)
(-0.0369551 0.00234872 0.026938)
(-0.0526358 0.00200227 0.0207803)
(-0.0631921 0.00179804 0.0107344)
(-0.067092 0.00178004 -0.00228424)
(-0.0626025 0.00186576 -0.0172117)
(-0.0482924 0.00183557 -0.0305389)
(-0.0250683 0.00135868 -0.0343112)
(-0.00563735 0.000153545 -0.0178806)
(-0.00333535 0.00236555 0.0130674)
(-0.0147942 0.00249935 0.0237475)
(-0.0303593 0.00216882 0.0240574)
(-0.0434345 0.00187243 0.0189643)
(-0.0523937 0.00173716 0.0106771)
(-0.0558889 0.00179996 -0.000110063)
(-0.0523848 0.00198513 -0.0125448)
(-0.0406034 0.00200432 -0.0239312)
(-0.0212544 0.00140073 -0.0278235)
(-0.00488149 -0.000242078 -0.015146)
(-0.00141045 0.00108728 0.0080892)
(-0.00680214 0.00104874 0.0134846)
(-0.0144933 0.000890426 0.0136111)
(-0.0211449 0.000773034 0.0112193)
(-0.0259456 0.000730333 0.00730037)
(-0.0280944 0.000778685 0.00207669)
(-0.0266431 0.000892016 -0.00416638)
(-0.0207845 0.000922168 -0.0102783)
(-0.0107874 0.000618465 -0.0132153)
(-0.0024161 -0.000270085 -0.0081527)
(-0.00195115 -0.00154685 0.0146552)
(-0.00882676 -0.00154836 0.0234571)
(-0.0182838 -0.00132156 0.0233581)
(-0.0264934 -0.00111483 0.0193293)
(-0.0328425 -0.000996089 0.0129973)
(-0.0365454 -0.00100609 0.0045365)
(-0.0362658 -0.00113329 -0.00596192)
(-0.0301773 -0.00121879 -0.017062)
(-0.0174027 -0.000886138 -0.0236659)
(-0.00457553 0.000291564 -0.0162184)
(-0.00456147 -0.00332535 0.0235014)
(-0.0193051 -0.00358665 0.0408079)
(-0.0387358 -0.00308542 0.0407366)
(-0.055111 -0.00254896 0.0322117)
(-0.0671102 -0.00218759 0.0188103)
(-0.073401 -0.00208393 0.00129128)
(-0.0717542 -0.00226412 -0.0196312)
(-0.0590883 -0.00237573 -0.0403735)
(-0.0341014 -0.00178185 -0.0499652)
(-0.0089386 0.000258477 -0.0300938)
(-0.00556542 -0.00309448 0.0254697)
(-0.0235842 -0.00367493 0.0456313)
(-0.0472518 -0.00318629 0.0456056)
(-0.0669667 -0.00254908 0.035335)
(-0.081154 -0.00205488 0.0191058)
(-0.0883661 -0.0018 -0.00207421)
(-0.0860052 -0.00181485 -0.0271394)
(-0.0704664 -0.00184829 -0.0515023)
(-0.0403765 -0.00147247 -0.0615597)
(-0.0103804 -0.00015209 -0.035583)
(-0.005762 -0.00196333 0.0255644)
(-0.0247552 -0.00246749 0.0464632)
(-0.0498718 -0.00214396 0.0465561)
(-0.0707454 -0.00167153 0.0358774)
(-0.0857239 -0.00128006 0.01888)
(-0.0932831 -0.0010504 -0.00336485)
(-0.0906992 -0.000973 -0.0297384)
(-0.0741744 -0.00096761 -0.0552943)
(-0.0422599 -0.000813767 -0.0654976)
(-0.010703 -0.000197334 -0.0374096)
(-0.00574704 -0.000655581 0.0254048)
(-0.0249248 -0.000847668 0.0464381)
(-0.0504209 -0.000737173 0.0466255)
(-0.0716212 -0.000566112 0.0359362)
(-0.0868457 -0.000418931 0.0188342)
(-0.0945406 -0.000325109 -0.00361243)
(-0.0919344 -0.000286305 -0.0302889)
(-0.0751561 -0.000280852 -0.0561772)
(-0.042721 -0.000246881 -0.0664831)
(-0.0107506 -8.26112e-05 -0.0378846)
(-0.00574704 0.000655606 0.0254048)
(-0.0249248 0.000847661 0.0464381)
(-0.0504209 0.000737163 0.0466255)
(-0.0716211 0.00056611 0.0359362)
(-0.0868457 0.000418929 0.0188342)
(-0.0945406 0.000325102 -0.00361244)
(-0.0919344 0.000286297 -0.0302889)
(-0.0751561 0.000280842 -0.0561772)
(-0.042721 0.000246873 -0.0664831)
(-0.0107506 8.26117e-05 -0.0378846)
(-0.005762 0.00196335 0.0255644)
(-0.0247552 0.00246748 0.0464632)
(-0.0498718 0.00214395 0.0465561)
(-0.0707454 0.00167152 0.0358774)
(-0.0857239 0.00128006 0.01888)
(-0.0932831 0.00105039 -0.00336486)
(-0.0906992 0.000972992 -0.0297384)
(-0.0741744 0.000967601 -0.0552943)
(-0.0422599 0.000813759 -0.0654976)
(-0.010703 0.000197333 -0.0374096)
(-0.00556542 0.0030945 0.0254697)
(-0.0235842 0.00367491 0.0456313)
(-0.0472518 0.00318628 0.0456057)
(-0.0669667 0.00254908 0.035335)
(-0.081154 0.00205487 0.0191057)
(-0.0883661 0.00179999 -0.00207422)
(-0.0860052 0.00181484 -0.0271394)
(-0.0704664 0.00184828 -0.0515023)
(-0.0403765 0.00147246 -0.0615596)
(-0.0103804 0.000152086 -0.035583)
(-0.00456146 0.00332535 0.0235014)
(-0.0193051 0.00358664 0.040808)
(-0.0387358 0.00308542 0.0407366)
(-0.055111 0.00254896 0.0322117)
(-0.0671102 0.00218759 0.0188103)
(-0.073401 0.00208392 0.00129126)
(-0.0717542 0.00226411 -0.0196312)
(-0.0590883 0.00237572 -0.0403735)
(-0.0341014 0.00178184 -0.0499652)
(-0.0089386 -0.000258483 -0.0300938)
(-0.00195114 0.00154684 0.0146551)
(-0.00882676 0.00154834 0.0234571)
(-0.0182838 0.00132155 0.0233581)
(-0.0264934 0.00111483 0.0193293)
(-0.0328425 0.000996087 0.0129973)
(-0.0365454 0.00100608 0.00453649)
(-0.0362658 0.00113328 -0.00596192)
(-0.0301773 0.00121877 -0.017062)
(-0.0174027 0.000886129 -0.0236659)
(-0.00457553 -0.000291568 -0.0162184)
(-0.00293204 -0.00215162 0.0235603)
(-0.0118863 -0.00215694 0.0362313)
(-0.0233566 -0.00176783 0.0355457)
(-0.0332917 -0.00136092 0.0296548)
(-0.0416269 -0.00105316 0.0209178)
(-0.0478422 -0.000915241 0.00914719)
(-0.0502211 -0.000965822 -0.00641689)
(-0.0453393 -0.00116839 -0.024734)
(-0.029935 -0.00104291 -0.0384664)
(-0.00935064 0.000101705 -0.0300527)
(-0.00652103 -0.00455506 0.037302)
(-0.0256036 -0.00487341 0.062248)
(-0.0494908 -0.00399115 0.0613138)
(-0.0695943 -0.00294916 0.0490035)
(-0.0854877 -0.00208119 0.0304381)
(-0.0962238 -0.00156353 0.00587301)
(-0.0988774 -0.00143262 -0.0253117)
(-0.0876185 -0.00170946 -0.0598071)
(-0.0572237 -0.00168182 -0.0814409)
(-0.0174117 -7.12335e-05 -0.0559217)
(-0.00783823 -0.00415913 0.0404)
(-0.031042 -0.00485972 0.0694558)
(-0.0601883 -0.0039657 0.0685859)
(-0.0844823 -0.0027544 0.0539279)
(-0.103372 -0.00166039 0.0315676)
(-0.115717 -0.000884629 0.00193511)
(-0.118164 -0.000539035 -0.0353541)
(-0.10399 -0.000703536 -0.0760124)
(-0.067376 -0.000977788 -0.0999612)
(-0.0201304 -0.000332858 -0.0661207)
(-0.00806668 -0.00259808 0.0406705)
(-0.0324296 -0.00319994 0.0708248)
(-0.0633216 -0.00259758 0.0701933)
(-0.089044 -0.00171953 0.0550886)
(-0.108994 -0.000895685 0.0318114)
(-0.121998 -0.000269636 0.000805065)
(-0.124509 2.84365e-05 -0.0383365)
(-0.109404 -5.84329e-05 -0.0810588)
(-0.0706501 -0.00035679 -0.10596)
(-0.0209281 -0.000243548 -0.069507)
(-0.00802843 -0.000859013 0.0405106)
(-0.0325743 -0.00108718 0.0708913)
(-0.0638932 -0.000879911 0.0704416)
(-0.0900049 -0.000566311 0.0553927)
(-0.110289 -0.00026747 0.0320538)
(-0.123551 -3.8088e-05 0.000839165)
(-0.126183 7.86942e-05 -0.0387123)
(-0.110915 5.25181e-05 -0.082033)
(-0.0715915 -7.01649e-05 -0.107362)
(-0.0211525 -8.28196e-05 -0.0703928)
(-0.00802843 0.000859031 0.0405106)
(-0.0325743 0.00108718 0.0708913)
(-0.0638932 0.000879902 0.0704416)
(-0.0900049 0.000566305 0.0553927)
(-0.110289 0.00026746 0.0320538)
(-0.123551 3.80776e-05 0.000839166)
(-0.126183 -7.86998e-05 -0.0387123)
(-0.110915 -5.25196e-05 -0.082033)
(-0.0715915 7.01735e-05 -0.107362)
(-0.0211525 8.28272e-05 -0.0703928)
(-0.00806668 0.0025981 0.0406705)
(-0.0324296 0.00319993 0.0708248)
(-0.0633216 0.00259757 0.0701933)
(-0.089044 0.00171952 0.0550886)
(-0.108994 0.000895675 0.0318114)
(-0.121998 0.000269625 0.000805067)
(-0.124509 -2.84421e-05 -0.0383365)
(-0.109404 5.84299e-05 -0.0810588)
(-0.0706501 0.000356793 -0.10596)
(-0.0209281 0.000243551 -0.069507)
(-0.00783823 0.00415914 0.0404)
(-0.031042 0.00485971 0.0694558)
(-0.0601883 0.0039657 0.0685859)
(-0.0844823 0.00275439 0.0539279)
(-0.103372 0.00166038 0.0315676)
(-0.115717 0.000884616 0.00193511)
(-0.118164 0.00053903 -0.0353541)
(-0.10399 0.000703535 -0.0760124)
(-0.067376 0.000977792 -0.0999612)
(-0.0201304 0.000332861 -0.0661207)
(-0.00652102 0.00455507 0.037302)
(-0.0256036 0.0048734 0.062248)
(-0.0494908 0.00399115 0.0613138)
(-0.0695943 0.00294916 0.0490035)
(-0.0854877 0.00208118 0.0304381)
(-0.0962238 0.00156351 0.00587301)
(-0.0988774 0.00143261 -0.0253117)
(-0.0876185 0.00170946 -0.0598071)
(-0.0572237 0.00168182 -0.0814408)
(-0.0174117 7.12375e-05 -0.0559217)
(-0.00293204 0.00215161 0.0235602)
(-0.0118863 0.00215694 0.0362313)
(-0.0233566 0.00176783 0.0355457)
(-0.0332917 0.00136092 0.0296548)
(-0.0416269 0.00105315 0.0209178)
(-0.0478422 0.00091523 0.00914719)
(-0.0502212 0.000965816 -0.00641689)
(-0.0453393 0.00116839 -0.024734)
(-0.029935 0.00104291 -0.0384664)
(-0.00935063 -0.0001017 -0.0300526)
(-0.00490461 -0.00298534 0.0362342)
(-0.0168558 -0.00287023 0.0524817)
(-0.0300349 -0.00205715 0.0501227)
(-0.0410967 -0.00113887 0.0418541)
(-0.0511608 -0.000291685 0.0307976)
(-0.0605471 0.000421497 0.0160113)
(-0.0675018 0.000838855 -0.00508117)
(-0.066647 0.000570264 -0.0332867)
(-0.0508867 -0.000132373 -0.0596315)
(-0.0184549 -0.000354767 -0.0549231)
(-0.00999139 -0.00618253 0.0563301)
(-0.0349071 -0.0063256 0.0890983)
(-0.0630259 -0.00453325 0.0860006)
(-0.0858934 -0.00231656 0.0693952)
(-0.104968 -0.000151825 0.0460518)
(-0.120586 0.00174684 0.0149712)
(-0.12967 0.00300999 -0.0275203)
(-0.123348 0.00267933 -0.0809082)
(-0.0914184 0.000763547 -0.124869)
(-0.0317131 -0.000836394 -0.10168)
(-0.011689 -0.00550041 0.0607392)
(-0.0416408 -0.00615391 0.0990931)
(-0.0760538 -0.00439275 0.0962432)
(-0.103805 -0.00199757 0.0769482)
(-0.12638 0.000414664 0.0491968)
(-0.143981 0.00252416 0.0120045)
(-0.153048 0.00390148 -0.0386544)
(-0.143576 0.00361383 -0.101622)
(-0.104993 0.0014537 -0.151768)
(-0.0357201 -0.000700499 -0.119648)
(-0.0119177 -0.00337179 0.0611806)
(-0.043149 -0.00398546 0.101071)
(-0.0795546 -0.00283118 0.0987213)
(-0.10894 -0.00118214 0.0791355)
(-0.132774 0.000494923 0.050549)
(-0.151206 0.00194973 0.0118845)
(-0.160511 0.00284955 -0.0411204)
(-0.150205 0.00263088 -0.107335)
(-0.109534 0.0011632 -0.160048)
(-0.0370773 -0.000351637 -0.12555)
(-0.0118298 -0.00110228 0.0610096)
(-0.0431904 -0.00134155 0.101241)
(-0.0800291 -0.000950577 0.0992259)
(-0.109843 -0.000377505 0.0798498)
(-0.134087 0.000207105 0.0513439)
(-0.152903 0.000709538 0.0125555)
(-0.162509 0.00100922 -0.0409466)
(-0.152206 0.000927138 -0.108149)
(-0.111051 0.000427231 -0.161908)
(-0.0375738 -9.31795e-05 -0.127138)
(-0.0118298 0.00110229 0.0610096)
(-0.0431904 0.00134155 0.101241)
(-0.0800291 0.000950569 0.0992259)
(-0.109843 0.000377496 0.0798498)
(-0.134087 -0.000207117 0.0513439)
(-0.152903 -0.000709545 0.0125555)
(-0.162509 -0.00100922 -0.0409466)
(-0.152206 -0.000927133 -0.108149)
(-0.111051 -0.000427225 -0.161908)
(-0.0375738 9.31864e-05 -0.127138)
(-0.0119177 0.0033718 0.0611806)
(-0.043149 0.00398546 0.101071)
(-0.0795546 0.00283117 0.0987213)
(-0.10894 0.00118213 0.0791355)
(-0.132774 -0.000494935 0.050549)
(-0.151206 -0.00194974 0.0118845)
(-0.160511 -0.00284955 -0.0411204)
(-0.150205 -0.00263088 -0.107335)
(-0.109534 -0.0011632 -0.160048)
(-0.0370774 0.000351638 -0.12555)
(-0.011689 0.00550042 0.0607392)
(-0.0416408 0.00615391 0.0990931)
(-0.0760538 0.00439275 0.0962432)
(-0.103805 0.00199756 0.0769482)
(-0.12638 -0.000414675 0.0491968)
(-0.143981 -0.00252416 0.0120045)
(-0.153048 -0.00390147 -0.0386544)
(-0.143576 -0.00361382 -0.101622)
(-0.104993 -0.00145369 -0.151768)
(-0.0357201 0.000700502 -0.119648)
(-0.00999139 0.00618253 0.0563301)
(-0.0349071 0.0063256 0.0890984)
(-0.0630259 0.00453326 0.0860006)
(-0.0858934 0.00231656 0.0693951)
(-0.104968 0.000151815 0.0460518)
(-0.120586 -0.00174685 0.0149712)
(-0.12967 -0.00300997 -0.0275203)
(-0.123348 -0.00267931 -0.0809082)
(-0.0914185 -0.000763532 -0.124869)
(-0.0317131 0.000836395 -0.10168)
(-0.00490461 0.00298534 0.0362341)
(-0.0168558 0.00287023 0.0524817)
(-0.0300349 0.00205716 0.0501227)
(-0.0410967 0.00113887 0.0418541)
(-0.0511609 0.000291677 0.0307976)
(-0.0605471 -0.000421503 0.0160113)
(-0.0675018 -0.00083885 -0.00508117)
(-0.066647 -0.000570255 -0.0332867)
(-0.0508867 0.000132383 -0.0596315)
(-0.018455 0.000354769 -0.0549231)
(-0.00913915 -0.00416808 0.0556726)
(-0.0252335 -0.00367361 0.0722452)
(-0.0375545 -0.00189178 0.0654749)
(-0.0467812 0.000118896 0.0535233)
(-0.0561054 0.00212518 0.0400354)
(-0.0674108 0.00417592 0.0228489)
(-0.0799362 0.00593936 -0.00329192)
(-0.0869012 0.0060114 -0.0435876)
(-0.0775494 0.00352788 -0.0891501)
(-0.0315026 -0.000710125 -0.0995045)
(-0.016571 -0.00838772 0.0841805)
(-0.0487005 -0.00788579 0.121485)
(-0.0770682 -0.0041629 0.11275)
(-0.0971146 0.00036867 0.090548)
(-0.11372 0.00507824 0.0629927)
(-0.129642 0.00986927 0.0271284)
(-0.14336 0.0138394 -0.0252836)
(-0.144742 0.0139404 -0.100877)
(-0.12207 0.00787409 -0.179181)
(-0.0460345 -0.00187691 -0.179479)
(-0.0186912 -0.00721999 0.0900212)
(-0.0565695 -0.0075243 0.134552)
(-0.0917939 -0.00412896 0.126421)
(-0.116416 0.000356641 0.101585)
(-0.135523 0.00509895 0.0695529)
(-0.151933 0.00972392 0.0271594)
(-0.163981 0.0131773 -0.034813)
(-0.160904 0.0128263 -0.123505)
(-0.132769 0.0068184 -0.213775)
(-0.048799 -0.00143447 -0.208232)
(-0.0188569 -0.00432608 0.0905559)
(-0.057945 -0.00481817 0.137088)
(-0.0951962 -0.0027115 0.12986)
(-0.121327 0.000199046 0.105096)
(-0.141381 0.0032905 0.0725412)
(-0.158179 0.00621136 0.0288101)
(-0.170046 0.00821478 -0.0358742)
(-0.165985 0.0078127 -0.129209)
(-0.136615 0.00409044 -0.224381)
(-0.050101 -0.000674054 -0.21781)
(-0.0186825 -0.00139611 0.0903288)
(-0.0577526 -0.00161216 0.137308)
(-0.0953552 -0.000919627 0.130616)
(-0.12187 6.01148e-05 0.106278)
(-0.142296 0.00109943 0.074002)
(-0.159468 0.0020639 0.0302625)
(-0.171712 0.00269241 -0.0350292)
(-0.167845 0.00252963 -0.129922)
(-0.138374 0.00132612 -0.227021)
(-0.0508271 -0.000165002 -0.220641)
(-0.0186825 0.00139611 0.0903288)
(-0.0577526 0.00161215 0.137308)
(-0.0953552 0.000919615 0.130616)
(-0.12187 -6.01335e-05 0.106278)
(-0.142296 -0.00109944 0.074002)
(-0.159468 -0.0020639 0.0302625)
(-0.171712 -0.00269241 -0.0350292)
(-0.167845 -0.00252964 -0.129922)
(-0.138374 -0.00132613 -0.227021)
(-0.0508271 0.000165003 -0.220641)
(-0.0188569 0.00432609 0.0905559)
(-0.057945 0.00481816 0.137088)
(-0.0951962 0.00271148 0.12986)
(-0.121327 -0.000199065 0.105096)
(-0.141381 -0.00329052 0.0725412)
(-0.158179 -0.00621137 0.0288101)
(-0.170046 -0.00821478 -0.0358742)
(-0.165985 -0.00781271 -0.129209)
(-0.136615 -0.00409044 -0.224381)
(-0.050101 0.000674057 -0.21781)
(-0.0186912 0.00722 0.0900212)
(-0.0565695 0.0075243 0.134552)
(-0.0917939 0.00412895 0.126421)
(-0.116416 -0.000356658 0.101585)
(-0.135523 -0.00509897 0.0695529)
(-0.151933 -0.00972393 0.0271594)
(-0.163981 -0.0131773 -0.034813)
(-0.160904 -0.0128263 -0.123505)
(-0.132769 -0.00681839 -0.213775)
(-0.048799 0.00143447 -0.208232)
(-0.016571 0.00838773 0.0841805)
(-0.0487005 0.0078858 0.121485)
(-0.0770682 0.00416291 0.11275)
(-0.0971146 -0.000368685 0.0905479)
(-0.11372 -0.00507825 0.0629927)
(-0.129642 -0.00986927 0.0271284)
(-0.14336 -0.0138393 -0.0252836)
(-0.144742 -0.0139404 -0.100877)
(-0.12207 -0.0078741 -0.179181)
(-0.0460345 0.0018769 -0.179479)
(-0.00913915 0.00416809 0.0556726)
(-0.0252335 0.00367361 0.0722452)
(-0.0375545 0.00189178 0.0654749)
(-0.0467812 -0.000118905 0.0535233)
(-0.0561054 -0.00212519 0.0400354)
(-0.0674108 -0.00417592 0.0228489)
(-0.0799362 -0.00593935 -0.00329192)
(-0.0869012 -0.0060114 -0.0435876)
(-0.0775494 -0.00352789 -0.0891501)
(-0.0315026 0.000710118 -0.0995045)
(-0.0183202 -0.00591143 0.0829231)
(-0.0381429 -0.00477351 0.091307)
(-0.0389725 -0.0014362 0.0763032)
(-0.0379355 0.00221438 0.0587979)
(-0.0398094 0.00578011 0.042788)
(-0.0478097 0.00966867 0.0244532)
(-0.0637705 0.0135346 -0.00465952)
(-0.0810644 0.0143613 -0.0572769)
(-0.0922703 0.00896478 -0.127429)
(-0.0389861 -0.00286165 -0.174346)
(-0.0299245 -0.0114836 0.119808)
(-0.0681682 -0.00994801 0.15315)
(-0.0793095 -0.00332993 0.134189)
(-0.0801482 0.00437063 0.10426)
(-0.0798284 0.0122099 0.0734227)
(-0.083252 0.020566 0.0366742)
(-0.0932428 0.0283079 -0.019049)
(-0.101367 0.0292237 -0.112911)
(-0.110027 0.0167261 -0.231847)
(-0.0390191 -0.0065302 -0.289625)
(-0.0327117 -0.00955869 0.126448)
(-0.0769774 -0.00943361 0.16925)
(-0.0935161 -0.00384317 0.151495)
(-0.0958877 0.003208 0.119077)
(-0.0941548 0.0106158 0.0841806)
(-0.0934867 0.018129 0.0415366)
(-0.0976449 0.0242821 -0.0230954)
(-0.0987354 0.0238593 -0.131482)
(-0.105953 0.0121626 -0.267942)
(-0.0351705 -0.00478799 -0.325702)
(-0.0327959 -0.00559362 0.126887)
(-0.0779308 -0.00600562 0.172197)
(-0.0959423 -0.00274436 0.155836)
(-0.0989374 0.00158875 0.123796)
(-0.0969693 0.00622942 0.088661)
(-0.0952351 0.0108022 0.0449049)
(-0.0980309 0.0142437 -0.0223542)
(-0.0978385 0.0136237 -0.136299)
(-0.105968 0.00677683 -0.279653)
(-0.0352979 -0.00233693 -0.338046)
(-0.0325086 -0.00178164 0.126565)
(-0.0773661 -0.00200234 0.172364)
(-0.0954946 -0.000966902 0.156738)
(-0.098656 0.000449527 0.125261)
(-0.0968015 0.00197493 0.0904956)
(-0.0951302 0.00345746 0.0467479)
(-0.0981503 0.00452554 -0.021222)
(-0.0983892 0.00427961 -0.137253)
(-0.107303 0.00214079 -0.283203)
(-0.0361014 -0.000620222 -0.342131)
(-0.0325086 0.00178164 0.126565)
(-0.0773661 0.00200233 0.172364)
(-0.0954946 0.000966875 0.156738)
(-0.098656 -0.000449561 0.125261)
(-0.0968015 -0.00197495 0.0904956)
(-0.0951302 -0.00345746 0.0467479)
(-0.0981503 -0.00452553 -0.021222)
(-0.0983892 -0.00427962 -0.137253)
(-0.107303 -0.00214079 -0.283203)
(-0.0361014 0.000620226 -0.342131)
(-0.0327959 0.00559361 0.126887)
(-0.0779308 0.0060056 0.172197)
(-0.0959423 0.00274433 0.155836)
(-0.0989374 -0.00158878 0.123796)
(-0.0969693 -0.00622944 0.0886611)
(-0.0952351 -0.0108022 0.0449049)
(-0.0980309 -0.0142437 -0.0223542)
(-0.0978385 -0.0136237 -0.136299)
(-0.105968 -0.00677682 -0.279653)
(-0.0352979 0.00233693 -0.338046)
(-0.0327117 0.00955869 0.126447)
(-0.0769774 0.00943361 0.16925)
(-0.0935162 0.00384316 0.151495)
(-0.0958877 -0.00320803 0.119077)
(-0.0941548 -0.0106158 0.0841806)
(-0.0934867 -0.018129 0.0415366)
(-0.0976449 -0.0242821 -0.0230953)
(-0.0987354 -0.0238593 -0.131482)
(-0.105953 -0.0121626 -0.267942)
(-0.0351705 0.00478799 -0.325702)
(-0.0299245 0.0114836 0.119808)
(-0.0681683 0.00994802 0.15315)
(-0.0793095 0.00332993 0.134189)
(-0.0801482 -0.00437065 0.10426)
(-0.0798284 -0.0122099 0.0734227)
(-0.083252 -0.020566 0.0366742)
(-0.0932428 -0.0283079 -0.019049)
(-0.101367 -0.0292237 -0.112911)
(-0.110027 -0.0167262 -0.231847)
(-0.0390191 0.00653019 -0.289625)
(-0.0183202 0.00591143 0.0829231)
(-0.0381429 0.00477352 0.091307)
(-0.0389725 0.0014362 0.0763031)
(-0.0379355 -0.00221439 0.0587979)
(-0.0398094 -0.00578011 0.042788)
(-0.0478097 -0.00966866 0.0244532)
(-0.0637705 -0.0135346 -0.00465952)
(-0.0810644 -0.0143613 -0.0572769)
(-0.0922703 -0.0089648 -0.127429)
(-0.0389861 0.00286164 -0.174346)
(-0.0246947 -0.0097734 0.153945)
(-0.0269689 -0.00787501 0.101163)
(0.0109583 -0.00275696 0.0645607)
(0.0358147 0.00233512 0.0430278)
(0.0505699 0.00687745 0.0276297)
(0.0531535 0.0116627 0.0120603)
(0.037987 0.0169413 -0.0132746)
(0.0120946 0.0180007 -0.0669052)
(-0.0448303 0.00881695 -0.158402)
(-0.00682936 -0.0124031 -0.247058)
(-0.0446576 -0.0179143 0.212919)
(-0.0527432 -0.0156393 0.166173)
(-0.00174561 -0.00640293 0.118113)
(0.0405718 0.00343616 0.0840441)
(0.073919 0.0128305 0.0565712)
(0.0956543 0.0225622 0.0281597)
(0.0957971 0.0328273 -0.0142638)
(0.0863565 0.0347001 -0.0987358)
(0.0121926 0.0158946 -0.240579)
(0.0336223 -0.0210131 -0.354037)
(-0.0492171 -0.0135514 0.221757)
(-0.0600854 -0.0139888 0.181337)
(-0.00876825 -0.00717405 0.133744)
(0.0374532 0.00106136 0.09789)
(0.0772767 0.00958689 0.0676268)
(0.108166 0.0181944 0.0354739)
(0.117113 0.0263252 -0.0120485)
(0.11701 0.0266287 -0.105492)
(0.039507 0.0103228 -0.262692)
(0.0481874 -0.0130613 -0.381118)
(-0.0492069 -0.00751127 0.221928)
(-0.0598174 -0.00861667 0.183222)
(-0.00855992 -0.00496999 0.136804)
(0.0382976 -0.000177059 0.101502)
(0.0795561 0.00501826 0.0712504)
(0.112876 0.0102578 0.0384159)
(0.123686 0.0148992 -0.0107793)