/*--------------------------------*- C++ -*----------------------------------*\
  =========                 |
  \\      /  F ield         | OpenFOAM: The Open Source CFD Toolbox
   \\    /   O peration     | Website:  https://openfoam.org
    \\  /    A nd           | Version:  9
     \\/     M anipulation  |
\*---------------------------------------------------------------------------*/
FoamFile
{
    format      ascii;
    class       volScalarField;
    location    "0.93";
    object      p;
}
// * * * * * * * * * * * * * * * * * * * * * * * * * * * * * * * * * * * * * //

dimensions      [0 2 -2 0 0 0 0];

internalField   nonuniform List<scalar> 
1000
(
5.33704e-06
-0.000489149
-0.000186484
0.000866488
0.00274795
0.00533194
0.00815592
0.010454
0.0115214
0.0106618
0.000176719
-0.000735688
-0.000541708
0.000558129
0.00262412
0.00551027
0.00867846
0.0111955
0.0122043
0.0107921
0.000968573
-0.000223391
-6.86767e-05
0.00113318
0.00345048
0.00670894
0.0102604
0.0129215
0.0136783
0.0115191
0.00182708
0.000447734
0.000588312
0.00189216
0.00443933
0.00803877
0.0118566
0.0145705
0.0150622
0.0123057
0.00236708
0.000898789
0.00103808
0.00240248
0.00507604
0.00884979
0.0128135
0.0155363
0.0158683
0.0127947
0.00236709
0.000898798
0.00103808
0.00240249
0.00507605
0.00884979
0.0128135
0.0155363
0.0158683
0.0127947
0.00182712
0.000447763
0.000588336
0.00189218
0.00443934
0.00803877
0.0118566
0.0145705
0.0150622
0.0123057
0.000968677
-0.000223336
-6.86354e-05
0.0011332
0.0034505
0.00670895
0.0102604
0.0129215
0.0136783
0.0115191
0.000176907
-0.000735611
-0.000541651
0.000558166
0.00262414
0.00551029
0.00867848
0.0111955
0.0122043
0.0107921
6.18629e-06
-0.000488983
-0.000186403
0.000866537
0.00274798
0.00533196
0.00815593
0.010454
0.0115214
0.0106618
0.00042121
-1.543e-05
0.000305493
0.00122497
0.00285172
0.00514026
0.00772486
0.00993416
0.0110228
0.00987531
0.000962141
3.13805e-05
0.000269614
0.00118146
0.00284559
0.00523018
0.00795987
0.010296
0.0113445
0.0095409
0.00219786
0.00085092
0.00101739
0.00192319
0.00365543
0.00618955
0.00915407
0.0115678
0.0124085
0.00984963
0.00337549
0.00170753
0.00180847
0.00271034
0.00451548
0.00721755
0.0103541
0.0127968
0.013427
0.0103147
0.00407813
0.00223824
0.00230191
0.00320137
0.00504791
0.00785135
0.0110746
0.0135184
0.0140235
0.0106369
0.00407814
0.00223825
0.00230192
0.00320138
0.00504791
0.00785135
0.0110746
0.0135184
0.0140235
0.0106369
0.00337552
0.00170755
0.00180849
0.00271035
0.00451549
0.00721756
0.0103541
0.0127968
0.013427
0.0103147
0.00219792
0.000850959
0.00101743
0.00192321
0.00365545
0.00618957
0.00915408
0.0115678
0.0124085
0.00984964
0.000962224
3.14329e-05
0.000269656
0.00118149
0.00284561
0.0052302
0.00795988
0.010296
0.0113445
0.00954091
0.000421368
-1.53528e-05
0.000305549
0.00122501
0.00285174
0.00514028
0.00772487
0.00993417
0.0110228
0.00987531
-0.00093056
-0.00150149
-0.00130678
-0.000598229
0.000844082
0.00315117
0.00610326
0.00901102
0.0107764
0.0094626
-6.49417e-05
-0.00129902
-0.00119001
-0.000483286
0.00100094
0.00343028
0.00658191
0.00966258
0.0113535
0.00888896
0.00169661
-0.00013696
-0.000162879
0.000443653
0.00189888
0.00443157
0.00780015
0.0110122
0.0125037
0.0089887
0.00330722
0.00101181
0.000853658
0.00136053
0.00279454
0.00542928
0.00893234
0.0121934
0.0134822
0.00926447
0.00424629
0.00170373
0.00146749
0.00191555
0.00333839
0.00602029
0.00958658
0.012852
0.0140213
0.00947741
0.00424629
0.00170374
0.0014675
0.00191555
0.0033384
0.00602029
0.00958658
0.012852
0.0140213
0.00947741
0.00330724
0.00101183
0.000853673
0.00136054
0.00279455
0.00542929
0.00893235
0.0121934
0.0134822
0.00926447
0.00169665
-0.000136931
-0.000162854
0.000443672
0.00189889
0.00443158
0.00780016
0.0110123
0.0125037
0.0089887
-6.48859e-05
-0.00129898
-0.00118998
-0.000483261
0.00100096
0.0034303
0.00658192
0.00966258
0.0113535
0.00888897
-0.000930482
-0.00150144
-0.00130674
-0.0005982
0.000844103
0.00315119
0.00610327
0.00901103
0.0107764
0.00946261
-0.00444377
-0.00514267
-0.00512939
-0.004707
-0.00346922
-0.000976681
0.00283294
0.00733351
0.0108056
0.00990767
-0.00325604
-0.00476833
-0.00484293
-0.00440404
-0.00309149
-0.000418925
0.00369508
0.00852895
0.0119303
0.0092923
-0.000964282
-0.00325781
-0.00357762
-0.00339802
-0.00228413
0.000397593
0.00466646
0.00976415
0.0131002
0.00928844
0.00108897
-0.00180377
-0.00236452
-0.00244221
-0.00152708
0.00108003
0.00546731
0.010692
0.013927
0.00942051
0.00227091
-0.000940931
-0.00164366
-0.0018712
-0.00106563
0.00150114
0.00590437
0.0111601
0.014332
0.00953402
0.00227092
-0.000940927
-0.00164365
-0.0018712
-0.00106563
0.00150114
0.00590437
0.0111601
0.014332
0.00953402
0.00108899
-0.00180376
-0.00236451
-0.0024422
-0.00152707
0.00108003
0.00546731
0.010692
0.013927
0.00942051
-0.000964256
-0.00325779
-0.0035776
-0.00339801
-0.00228412
0.000397603
0.00466647
0.00976416
0.0131002
0.00928844
-0.003256
-0.0047683
-0.00484291
-0.00440402
-0.00309148
-0.000418915
0.00369509
0.00852896
0.0119303
0.0092923
-0.00444373
-0.00514264
-0.00512936
-0.00470698
-0.0034692
-0.000976669
0.00283295
0.00733352
0.0108056
0.00990767
-0.0107995
-0.011453
-0.0115406
-0.0114138
-0.0104378
-0.00767899
-0.00251058
0.00475438
0.01159
0.0127913
-0.00933599
-0.0109253
-0.0111211
-0.0109963
-0.00995418
-0.00707229
-0.00160269
0.00621664
0.0132203
0.0125648
-0.00663385
-0.00916852
-0.00978839
-0.0101961
-0.00969643
-0.00714146
-0.00168452
0.00657674
0.0139055
0.0125673
-0.00425764
-0.00750882
-0.00852892
-0.0094319
-0.00940512
-0.0071341
-0.00177501
0.00670481
0.0142252
0.0126158
-0.00290684
-0.00653597
-0.0077861
-0.00896476
-0.00919402
-0.00711516
-0.00180914
0.00673547
0.0143262
0.0126441
-0.00290684
-0.00653596
-0.0077861
-0.00896476
-0.00919401
-0.00711516
-0.00180914
0.00673547
0.0143262
0.0126441
-0.00425763
-0.00750882
-0.00852891
-0.00943189
-0.00940511
-0.00713409
-0.00177501
0.00670481
0.0142252
0.0126158
-0.00663384
-0.00916851
-0.00978837
-0.0101961
-0.00969642
-0.00714145
-0.00168452
0.00657674
0.0139055
0.0125673
-0.00933597
-0.0109253
-0.0111211
-0.0109963
-0.00995417
-0.00707228
-0.00160269
0.00621664
0.0132204
0.0125648
-0.0107995
-0.0114529
-0.0115406
-0.0114138
-0.0104378
-0.00767898
-0.00251057
0.00475438
0.01159
0.0127913
-0.0206118
-0.0206795
-0.0204952
-0.0205044
-0.0197679
-0.0167668
-0.0098537
0.00149608
0.0143464
0.0210115
-0.0189073
-0.0200533
-0.020061
-0.0202009
-0.0196618
-0.0169386
-0.0102083
0.00166475
0.0151679
0.0213642
-0.0159366
-0.0181715
-0.0188565
-0.0199368
-0.0204628
-0.0186968
-0.0124681
-7.22809e-05
0.0145217
0.0213745
-0.013389
-0.0164219
-0.0177007
-0.0195756
-0.0209423
-0.0199042
-0.0140421
-0.00139596
0.0138457
0.0212862
-0.0119644
-0.0154104
-0.0170173
-0.0193095
-0.0210912
-0.0203671
-0.0147418
-0.00203625
0.0134717
0.0212078
-0.0119644
-0.0154104
-0.0170173
-0.0193095
-0.0210911
-0.0203671
-0.0147418
-0.00203625
0.0134717
0.0212078
-0.013389
-0.0164219
-0.0177007
-0.0195756
-0.0209423
-0.0199042
-0.0140421
-0.00139596
0.0138457
0.0212862
-0.0159365
-0.0181715
-0.0188565
-0.0199368
-0.0204628
-0.0186968
-0.0124681
-7.22764e-05
0.0145217
0.0213745
-0.0189073
-0.0200532
-0.020061
-0.0202009
-0.0196618
-0.0169386
-0.0102082
0.00166475
0.0151679
0.0213642
-0.0206118
-0.0206795
-0.0204952
-0.0205044
-0.0197679
-0.0167668
-0.0098537
0.00149608
0.0143464
0.0210115
-0.0349472
-0.0326889
-0.0312352
-0.0308323
-0.0301865
-0.0270368
-0.0184739
-0.00184477
0.0201125
0.0388496
-0.0328027
-0.0319148
-0.0308889
-0.0309886
-0.0311041
-0.0291063
-0.0218045
-0.00536383
0.0177629
0.0389573
-0.0295447
-0.0298414
-0.0297921
-0.0313253
-0.0331775
-0.0329962
-0.0270244
-0.0102769
0.0146824
0.0387969
-0.0268829
-0.0279917
-0.0287088
-0.0313203
-0.0343793
-0.0353543
-0.0301666
-0.0132412
0.0127613
0.0386571
-0.0254351
-0.0269521
-0.028074
-0.0312137
-0.0348231
-0.0362992
-0.0314592
-0.0144927
0.0119281
0.0385748
-0.0254351
-0.0269521
-0.028074
-0.0312137
-0.0348231
-0.0362992
-0.0314592
-0.0144927
0.0119281
0.0385748
-0.0268829
-0.0279916
-0.0287088
-0.0313203
-0.0343793
-0.0353542
-0.0301665
-0.0132412
0.0127613
0.0386571
-0.0295447
-0.0298414
-0.0297921
-0.0313253
-0.0331775
-0.0329962
-0.0270244
-0.0102769
0.0146824
0.0387969
-0.0328027
-0.0319148
-0.0308889
-0.0309885
-0.0311041
-0.0291063
-0.0218045
-0.00536382
0.0177629
0.0389573
-0.0349472
-0.0326889
-0.0312352
-0.0308323
-0.0301865
-0.0270368
-0.0184739
-0.00184477
0.0201125
0.0388496
-0.0576037
-0.0470414
-0.0422615
-0.0401886
-0.0390783
-0.0355675
-0.0256966
-0.00315107
0.0302686
0.0731843
-0.054338
-0.0455709
-0.0416564
-0.0408681
-0.0413466
-0.0400828
-0.033157
-0.0121549
0.0224974
0.0736484
-0.0501752
-0.0426427
-0.0399137
-0.0411207
-0.0439873
-0.0451639
-0.0403246
-0.0192277
0.0177814
0.0750973
-0.0470814
-0.0403071
-0.0384053
-0.0409024
-0.0452576
-0.0478066
-0.0440325
-0.0226259
0.0158018
0.0764608
-0.0454942
-0.0390843
-0.0376023
-0.0406892
-0.0456697
-0.0487574
-0.0454247
-0.0238666
0.015171
0.0771213
-0.0454942
-0.0390843
-0.0376023
-0.0406892
-0.0456697
-0.0487574
-0.0454247
-0.0238666
0.015171
0.0771213
-0.0470814
-0.0403071
-0.0384053
-0.0409024
-0.0452576
-0.0478066
-0.0440325
-0.0226259
0.0158018
0.0764608
-0.0501752
-0.0426427
-0.0399137
-0.0411207
-0.0439873
-0.0451639
-0.0403246
-0.0192277
0.0177814
0.0750973
-0.054338
-0.0455709
-0.0416564
-0.0408681
-0.0413466
-0.0400827
-0.033157
-0.0121549
0.0224974
0.0736484
-0.0576037
-0.0470414
-0.0422614
-0.0401886
-0.0390783
-0.0355675
-0.0256966
-0.00315107
0.0302686
0.0731843
-0.0891039
-0.0612618
-0.0520015
-0.0463863
-0.0436576
-0.039081
-0.0263905
0.00465074
0.0516423
0.150875
-0.0814326
-0.0572836
-0.0505743
-0.0473854
-0.0470348
-0.045198
-0.0362288
-0.00613226
0.0452784
0.162527
-0.0750185
-0.0524483
-0.047301
-0.0466464
-0.0492319
-0.0500494
-0.0431465
-0.011417
0.0463438
0.171602
-0.0710179
-0.0491439
-0.0448904
-0.0457609
-0.0500454
-0.0523272
-0.0462447
-0.0132216
0.0476587
0.17732
-0.0691695
-0.0475624
-0.0437299
-0.0452738
-0.0502606
-0.0531235
-0.047329
-0.0137862
0.0483824
0.179806
-0.0691695
-0.0475624
-0.0437299
-0.0452738
-0.0502606
-0.0531235
-0.047329
-0.0137862
0.0483824
0.179806
-0.0710179
-0.0491438
-0.0448904
-0.0457609
-0.0500454
-0.0523272
-0.0462447
-0.0132216
0.0476587
0.17732
-0.0750185
-0.0524483
-0.047301
-0.0466464
-0.0492319
-0.0500494
-0.0431465
-0.011417
0.0463438
0.171602
-0.0814325
-0.0572836
-0.0505743
-0.0473854
-0.0470348
-0.045198
-0.0362288
-0.00613226
0.0452784
0.162527
-0.0891039
-0.0612618
-0.0520015
-0.0463863
-0.0436576
-0.039081
-0.0263905
0.00465074
0.0516423
0.150875
-0.199334
-0.0739128
-0.0489056
-0.0404525
-0.0361691
-0.0294095
-0.0124886
0.0327625
0.11902
0.324661
-0.187022
-0.0611563
-0.0410732
-0.0370535
-0.0364443
-0.0330202
-0.0184936
0.029596
0.129535
0.359309
-0.178102
-0.0521992
-0.0343887
-0.0334638
-0.0360548
-0.0350125
-0.0214672
0.0297211
0.138871
0.380189
-0.172948
-0.0471258
-0.0303402
-0.0311404
-0.0355641
-0.0358337
-0.0226111
0.0302157
0.143504
0.390229
-0.170683
-0.0449434
-0.0285855
-0.0301123
-0.0353068
-0.0361341
-0.0230438
0.0304332
0.145272
0.394056
-0.170683
-0.0449434
-0.0285855
-0.0301123
-0.0353068
-0.0361341
-0.0230438
0.0304332
0.145272
0.394056
-0.172948
-0.0471258
-0.0303402
-0.0311404
-0.0355641
-0.0358337
-0.0226111
0.0302157
0.143504
0.390229
-0.178102
-0.0521992
-0.0343887
-0.0334638
-0.0360548
-0.0350125
-0.0214672
0.0297211
0.138871
0.380189
-0.187022
-0.0611563
-0.0410732
-0.0370535
-0.0364443
-0.0330202
-0.0184936
0.029596
0.129535
0.359309
-0.199334
-0.0739128
-0.0489056
-0.0404525
-0.0361691
-0.0294095
-0.0124886
0.0327625
0.11902
0.324661
)
;

boundaryField
{
    top
    {
        type            zeroGradient;
    }
    others
    {
        type            zeroGradient;
    }
}


// ************************************************************************* //
