/*--------------------------------*- C++ -*----------------------------------*\
  =========                 |
  \\      /  F ield         | OpenFOAM: The Open Source CFD Toolbox
   \\    /   O peration     | Website:  https://openfoam.org
    \\  /    A nd           | Version:  9
     \\/     M anipulation  |
\*---------------------------------------------------------------------------*/
FoamFile
{
    format      ascii;
    class       volVectorField;
    location    "0.93";
    object      U;
}
// * * * * * * * * * * * * * * * * * * * * * * * * * * * * * * * * * * * * * //

dimensions      [0 1 -1 0 0 0 0];

internalField   nonuniform List<vector> 
1000
(
(3.52862e-05 -0.000518557 0.000339483)
(-0.00138924 -0.000489439 0.00107927)
(-0.00456518 -0.000446617 0.00144431)
(-0.00796964 -0.000556598 0.00160697)
(-0.0108968 -0.000866638 0.00157823)
(-0.0123739 -0.00133697 0.00126567)
(-0.0114544 -0.00180202 0.000658189)
(-0.00788525 -0.00196891 -1.26529e-05)
(-0.0026241 -0.00156607 -0.000211408)
(0.000114684 -0.000468965 0.000385904)
(-0.000143536 -0.00184596 0.000596778)
(-0.00343205 -0.00229091 0.00232023)
(-0.0101706 -0.00237669 0.00308829)
(-0.0171071 -0.00271063 0.00319203)
(-0.0227321 -0.00347589 0.00270153)
(-0.0252419 -0.00456886 0.0015204)
(-0.0229965 -0.00556247 -0.000206853)
(-0.0157056 -0.00574902 -0.00174284)
(-0.00545251 -0.00454647 -0.00176127)
(-1.34063e-06 -0.00168129 0.00024376)
(-0.000347185 -0.00277535 0.000281363)
(-0.00501193 -0.00390993 0.00236826)
(-0.0141495 -0.00423648 0.00327702)
(-0.0233073 -0.00468319 0.00323287)
(-0.0304421 -0.00554004 0.00230261)
(-0.03325 -0.00668696 0.000418087)
(-0.029727 -0.0075763 -0.00210604)
(-0.0197296 -0.00749876 -0.00402776)
(-0.00628528 -0.00591057 -0.00347737)
(0.000360451 -0.00251183 -3.89328e-05)
(-0.000498285 -0.00235888 -0.000143017)
(-0.00610752 -0.00346725 0.00200231)
(-0.0168377 -0.00380302 0.00292962)
(-0.0274057 -0.00416106 0.00275158)
(-0.0354076 -0.00478837 0.00150674)
(-0.0381722 -0.00559008 -0.000842553)
(-0.0335415 -0.00612625 -0.00383899)
(-0.0216565 -0.00593364 -0.00586792)
(-0.00622651 -0.00467363 -0.00473964)
(0.000842021 -0.00210348 -0.000235121)
(-0.000581036 -0.00091239 -0.00040861)
(-0.006677 -0.00136278 0.0017199)
(-0.0182088 -0.00150104 0.00263751)
(-0.0294631 -0.00163428 0.00238348)
(-0.037847 -0.00185644 0.000974887)
(-0.0405199 -0.00213107 -0.00160841)
(-0.0352649 -0.00230688 -0.00480066)
(-0.0224021 -0.00221418 -0.00682891)
(-0.00602674 -0.001745 -0.00536336)
(0.00114651 -0.000805139 -0.000323788)
(-0.00058103 0.000912325 -0.000408605)
(-0.00667699 0.00136272 0.0017199)
(-0.0182088 0.00150099 0.00263752)
(-0.0294631 0.00163425 0.00238348)
(-0.037847 0.00185642 0.000974888)
(-0.0405199 0.00213105 -0.00160841)
(-0.0352649 0.00230686 -0.00480066)
(-0.0224021 0.00221417 -0.00682891)
(-0.00602674 0.00174499 -0.00536336)
(0.00114651 0.000805134 -0.000323788)
(-0.000498266 0.00235879 -0.000142999)
(-0.00610749 0.00346718 0.00200232)
(-0.0168377 0.00380297 0.00292963)
(-0.0274057 0.00416103 0.00275158)
(-0.0354076 0.00478835 0.00150674)
(-0.0381721 0.00559007 -0.000842551)
(-0.0335415 0.00612624 -0.00383899)
(-0.0216565 0.00593363 -0.00586791)
(-0.00622651 0.00467362 -0.00473964)
(0.000842022 0.00210347 -0.000235121)
(-0.000347138 0.0027752 0.000281407)
(-0.00501186 0.00390984 0.00236829)
(-0.0141495 0.00423642 0.00327703)
(-0.0233072 0.00468316 0.00323288)
(-0.0304421 0.00554002 0.00230262)
(-0.03325 0.00668695 0.00041809)
(-0.029727 0.00757629 -0.00210604)
(-0.0197296 0.00749876 -0.00402775)
(-0.00628527 0.00591056 -0.00347737)
(0.000360453 0.00251182 -3.89327e-05)
(-0.000143416 0.0018455 0.000596892)
(-0.00343188 0.00229076 0.00232028)
(-0.0101705 0.00237663 0.00308831)
(-0.0171071 0.0027106 0.00319204)
(-0.022732 0.00347588 0.00270154)
(-0.0252419 0.00456885 0.0015204)
(-0.0229965 0.00556247 -0.000206851)
(-0.0157056 0.00574901 -0.00174284)
(-0.00545251 0.00454647 -0.00176127)
(-1.33918e-06 0.00168129 0.00024376)
(3.56613e-05 0.000518196 0.000339858)
(-0.00138877 0.000489337 0.00107937)
(-0.00456505 0.000446584 0.00144434)
(-0.00796958 0.000556584 0.00160698)
(-0.0108967 0.000866631 0.00157823)
(-0.0123739 0.00133697 0.00126567)
(-0.0114544 0.00180202 0.00065819)
(-0.00788524 0.00196891 -1.26526e-05)
(-0.0026241 0.00156607 -0.000211408)
(0.000114685 0.000468963 0.000385903)
(-0.000620592 -0.00147915 0.00348019)
(-0.00409124 -0.00191223 0.00699318)
(-0.0101453 -0.00194948 0.00837876)
(-0.0164007 -0.00197403 0.00858754)
(-0.0216633 -0.00214628 0.00771707)
(-0.0243443 -0.00248915 0.00553491)
(-0.0228773 -0.00284466 0.00216403)
(-0.0166156 -0.00286039 -0.00132483)
(-0.00681441 -0.00210155 -0.00274975)
(-0.00065215 -0.000322864 -0.000491035)
(-0.00196008 -0.00439439 0.00582415)
(-0.0108736 -0.00620282 0.0133009)
(-0.0253479 -0.00649561 0.0159791)
(-0.0395179 -0.00658131 0.0154042)
(-0.0504957 -0.00698703 0.0119416)
(-0.0551503 -0.00774496 0.005518)
(-0.0507857 -0.00844058 -0.00290541)
(-0.0366444 -0.00819139 -0.0101843)
(-0.0158064 -0.00611509 -0.0111058)
(-0.00214672 -0.00166016 -0.0028897)
(-0.00305719 -0.00587822 0.0056276)
(-0.0161325 -0.00886102 0.014486)
(-0.0366308 -0.00943451 0.0174079)
(-0.0559206 -0.00952387 0.0157632)
(-0.0699873 -0.00989285 0.00996653)
(-0.0749502 -0.0105696 0.000230547)
(-0.0677417 -0.0110312 -0.0115433)
(-0.0479441 -0.0104076 -0.0204636)
(-0.0201644 -0.00790684 -0.0192697)
(-0.00252294 -0.00287261 -0.00516482)
(-0.00379479 -0.00476737 0.00474241)
(-0.0197042 -0.00739624 0.0137993)
(-0.0441997 -0.00791772 0.016541)
(-0.0666227 -0.00795582 0.0139735)
(-0.0822547 -0.00815001 0.00649413)
(-0.0868306 -0.00852588 -0.00538346)
(-0.0772751 -0.00865496 -0.0190332)
(-0.0537283 -0.0080412 -0.0283839)
(-0.0218524 -0.00617863 -0.0250594)
(-0.00235748 -0.00250156 -0.0066774)
(-0.00416335 -0.00180901 0.00411395)
(-0.0215098 -0.00283806 0.0130848)
(-0.0480034 -0.0030428 0.0156444)
(-0.0719053 -0.00304704 0.0125592)
(-0.0881588 -0.00309564 0.0042169)
(-0.0923464 -0.00320128 -0.00866972)
(-0.081486 -0.00320777 -0.0230813)
(-0.0560874 -0.00296033 -0.0324255)
(-0.0223501 -0.00228969 -0.0278817)
(-0.00216551 -0.000970698 -0.00738105)
(-0.00416334 0.00180895 0.00411396)
(-0.0215097 0.002838 0.0130848)
(-0.0480034 0.00304275 0.0156445)
(-0.0719053 0.00304701 0.0125592)
(-0.0881588 0.00309562 0.0042169)
(-0.0923464 0.00320126 -0.00866971)
(-0.081486 0.00320775 -0.0230813)
(-0.0560874 0.00296032 -0.0324255)
(-0.0223501 0.00228968 -0.0278817)
(-0.00216551 0.000970693 -0.00738105)
(-0.00379477 0.00476729 0.00474243)
(-0.0197042 0.00739618 0.0137993)
(-0.0441997 0.00791767 0.016541)
(-0.0666227 0.00795578 0.0139735)
(-0.0822547 0.00814999 0.00649413)
(-0.0868306 0.00852586 -0.00538346)
(-0.0772751 0.00865494 -0.0190332)
(-0.0537283 0.00804119 -0.0283839)
(-0.0218524 0.00617862 -0.0250594)
(-0.00235748 0.00250155 -0.0066774)
(-0.00305716 0.00587813 0.00562767)
(-0.0161325 0.00886095 0.0144861)
(-0.0366307 0.00943446 0.017408)
(-0.0559206 0.00952384 0.0157632)
(-0.0699872 0.00989282 0.00996654)
(-0.0749502 0.0105696 0.000230553)
(-0.0677417 0.0110312 -0.0115433)
(-0.0479441 0.0104076 -0.0204636)
(-0.0201644 0.00790683 -0.0192697)
(-0.00252294 0.0028726 -0.00516481)
(-0.00196002 0.00439424 0.00582432)
(-0.0108735 0.00620274 0.013301)
(-0.0253478 0.00649556 0.0159791)
(-0.0395179 0.00658128 0.0154042)
(-0.0504957 0.00698702 0.0119416)
(-0.0551503 0.00774495 0.00551801)
(-0.0507857 0.00844058 -0.0029054)
(-0.0366444 0.00819138 -0.0101843)
(-0.0158064 0.00611508 -0.0111058)
(-0.00214672 0.00166015 -0.00288969)
(-0.000620491 0.00147906 0.00348066)
(-0.00409109 0.00191218 0.00699333)
(-0.0101452 0.00194946 0.00837882)
(-0.0164006 0.00197401 0.00858756)
(-0.0216633 0.00214628 0.00771708)
(-0.0243443 0.00248915 0.00553491)
(-0.0228772 0.00284465 0.00216403)
(-0.0166156 0.00286038 -0.00132483)
(-0.00681441 0.00210155 -0.00274975)
(-0.000652149 0.000322862 -0.000491034)
(-0.0010944 -0.00230053 0.0101919)
(-0.00596498 -0.00305177 0.0182763)
(-0.0138674 -0.00302692 0.0209265)
(-0.0220024 -0.00279158 0.0206864)
(-0.0292164 -0.00264161 0.017908)
(-0.0337064 -0.00272496 0.0122109)
(-0.0332557 -0.00296384 0.00385953)
(-0.0261052 -0.00300906 -0.00496101)
(-0.0126065 -0.00222979 -0.00939815)
(-0.00218356 -5.27125e-05 -0.00463912)
(-0.00347469 -0.00652076 0.0170247)
(-0.0167876 -0.00920095 0.0335556)
(-0.0368959 -0.00920994 0.0383552)
(-0.0562087 -0.00841734 0.0356325)
(-0.0715465 -0.00775411 0.0264356)
(-0.0792949 -0.00758489 0.0108744)
(-0.0757204 -0.00772824 -0.00903646)
(-0.0583073 -0.00750273 -0.0269597)
(-0.028719 -0.00568297 -0.0313462)
(-0.00546998 -0.00095341 -0.0131003)
(-0.00544353 -0.00836876 0.0181464)
(-0.0254336 -0.0124354 0.0375478)
(-0.0545509 -0.0124966 0.0423614)
(-0.0811184 -0.0112458 0.0367623)
(-0.100605 -0.00999026 0.0221084)
(-0.10866 -0.00918447 -0.000716112)
(-0.101365 -0.00871208 -0.0277504)
(-0.0764806 -0.00814246 -0.0495692)
(-0.0369883 -0.00640719 -0.0503631)
(-0.00676597 -0.0019693 -0.0196613)
(-0.00678473 -0.00662557 0.017486)
(-0.0313415 -0.0100825 0.0373247)
(-0.0663903 -0.0101141 0.0413979)
(-0.0972056 -0.00897027 0.0334379)
(-0.118471 -0.00773352 0.0150265)
(-0.12568 -0.00677483 -0.0121592)
(-0.115236 -0.00610426 -0.0428443)
(-0.0855686 -0.00559553 -0.0657125)
(-0.0405772 -0.00455511 -0.0628812)
(-0.00704062 -0.00172859 -0.0237092)
(-0.00745583 -0.00248494 0.0168205)
(-0.0343139 -0.00381584 0.0365037)
(-0.0722819 -0.00381958 0.0400056)
(-0.105007 -0.00335726 0.030758)
(-0.126821 -0.00284302 0.0104998)
(-0.133275 -0.00242081 -0.0185989)
(-0.121103 -0.00212349 -0.0506289)
(-0.0891755 -0.00193294 -0.073539)
(-0.0418345 -0.00160853 -0.0686967)
(-0.00703408 -0.000669296 -0.0255206)
(-0.00745583 0.00248489 0.0168205)
(-0.0343139 0.00381579 0.0365037)
(-0.0722819 0.00381954 0.0400056)
(-0.105007 0.00335723 0.030758)
(-0.126821 0.002843 0.0104998)
(-0.133275 0.00242079 -0.0185989)
(-0.121103 0.00212348 -0.0506289)
(-0.0891755 0.00193293 -0.073539)
(-0.0418345 0.00160852 -0.0686967)
(-0.00703408 0.000669291 -0.0255206)
(-0.00678473 0.00662552 0.017486)
(-0.0313415 0.0100825 0.0373247)
(-0.0663903 0.010114 0.0413979)
(-0.0972056 0.00897024 0.0334379)
(-0.118471 0.0077335 0.0150265)
(-0.12568 0.00677482 -0.0121592)
(-0.115236 0.00610425 -0.0428443)
(-0.0855686 0.00559552 -0.0657125)
(-0.0405772 0.0045551 -0.0628812)
(-0.00704062 0.00172858 -0.0237092)
(-0.00544351 0.00836871 0.0181465)
(-0.0254336 0.0124353 0.0375478)
(-0.0545509 0.0124966 0.0423615)
(-0.0811183 0.0112457 0.0367624)
(-0.100605 0.00999024 0.0221084)
(-0.10866 0.00918446 -0.000716106)
(-0.101365 0.00871207 -0.0277504)
(-0.0764806 0.00814246 -0.0495692)
(-0.0369883 0.00640718 -0.0503631)
(-0.00676597 0.0019693 -0.0196613)
(-0.00347467 0.0065207 0.0170248)
(-0.0167876 0.0092009 0.0335557)
(-0.0368958 0.00920991 0.0383552)
(-0.0562086 0.00841732 0.0356325)
(-0.0715465 0.0077541 0.0264356)
(-0.0792949 0.00758488 0.0108744)
(-0.0757204 0.00772823 -0.00903645)
(-0.0583073 0.00750273 -0.0269597)
(-0.028719 0.00568297 -0.0313462)
(-0.00546998 0.000953408 -0.0131003)
(-0.00109437 0.0023005 0.010192)
(-0.00596493 0.00305175 0.0182764)
(-0.0138674 0.00302691 0.0209266)
(-0.0220023 0.00279158 0.0206865)
(-0.0292164 0.0026416 0.017908)
(-0.0337064 0.00272495 0.0122109)
(-0.0332557 0.00296384 0.00385953)
(-0.0261052 0.00300906 -0.004961)
(-0.0126065 0.00222979 -0.00939815)
(-0.00218355 5.27115e-05 -0.00463912)
(-0.00145722 -0.00300929 0.0190357)
(-0.00727716 -0.0039126 0.0324577)
(-0.0163685 -0.00361666 0.0361215)
(-0.0259564 -0.00287109 0.0349845)
(-0.0353867 -0.0021405 0.0298558)
(-0.0429362 -0.00175705 0.020001)
(-0.0455711 -0.00185166 0.00532506)
(-0.0394814 -0.00223287 -0.0112452)
(-0.0226117 -0.00197663 -0.0213477)
(-0.00549032 0.000132621 -0.0136503)
(-0.00467463 -0.00832847 0.0318548)
(-0.0212948 -0.0113775 0.0590558)
(-0.0455084 -0.0104518 0.065543)
(-0.0688706 -0.0079552 0.0597176)
(-0.0888031 -0.00532545 0.0436998)
(-0.101771 -0.00349258 0.0174242)
(-0.102736 -0.00287519 -0.0170348)
(-0.0858208 -0.00345011 -0.0507834)
(-0.0487333 -0.00350761 -0.0638214)
(-0.011788 -0.000162711 -0.0331266)
(-0.00733372 -0.0104307 0.0351133)
(-0.0326246 -0.0148682 0.0670398)
(-0.0681056 -0.0134856 0.0731797)
(-0.100177 -0.00968591 0.0624996)
(-0.124952 -0.00548669 0.0379158)
(-0.138322 -0.00217076 0.00055745)
(-0.1353 -0.00060509 -0.0451091)
(-0.110189 -0.00117129 -0.0861431)
(-0.0615524 -0.00229389 -0.0958782)
(-0.0144762 -0.000659543 -0.0459976)
(-0.00914131 -0.00811994 0.0352406)
(-0.040319 -0.0117959 0.068036)
(-0.0830489 -0.0105513 0.0728051)
(-0.11984 -0.00721269 0.0583828)
(-0.14614 -0.00347168 0.0283652)
(-0.158121 -0.000428577 -0.014948)
(-0.151483 0.000993194 -0.0655348)
(-0.121318 0.000432377 -0.108616)
(-0.066983 -0.000936477 -0.114679)
(-0.0154082 -0.000561998 -0.0531316)
(-0.0100385 -0.00301872 0.0348451)
(-0.044142 -0.0044145 0.0675157)
(-0.0903435 -0.00391456 0.0713068)
(-0.129086 -0.00259978 0.0549303)
(-0.155585 -0.00112574 0.0224361)
(-0.16637 7.33048e-05 -0.0231887)
(-0.157762 0.00062708 -0.0753217)
(-0.125396 0.000380518 -0.118642)
(-0.0689055 -0.000212443 -0.122733)
(-0.0156887 -0.000211595 -0.0561055)
(-0.0100385 0.00301869 0.0348451)
(-0.044142 0.00441447 0.0675158)
(-0.0903435 0.00391453 0.0713068)
(-0.129086 0.00259976 0.0549303)
(-0.155585 0.00112572 0.0224361)
(-0.16637 -7.33192e-05 -0.0231887)
(-0.157762 -0.000627091 -0.0753216)
(-0.125396 -0.000380527 -0.118642)
(-0.0689055 0.000212436 -0.122733)
(-0.0156887 0.00021159 -0.0561055)
(-0.0091413 0.0081199 0.0352406)
(-0.040319 0.0117959 0.068036)
(-0.0830489 0.0105513 0.0728051)
(-0.11984 0.00721267 0.0583829)
(-0.14614 0.00347166 0.0283652)
(-0.158121 0.000428564 -0.0149479)
(-0.151483 -0.000993204 -0.0655348)
(-0.121318 -0.000432385 -0.108616)
(-0.066983 0.000936471 -0.114679)
(-0.0154082 0.000561993 -0.0531316)
(-0.00733371 0.0104307 0.0351133)
(-0.0326246 0.0148682 0.0670398)
(-0.0681056 0.0134856 0.0731798)
(-0.100177 0.00968589 0.0624997)
(-0.124952 0.00548668 0.0379158)
(-0.138322 0.00217075 0.000557457)
(-0.1353 0.000605083 -0.0451091)
(-0.110189 0.00117129 -0.0861431)
(-0.0615524 0.00229389 -0.0958782)
(-0.0144762 0.000659539 -0.0459976)
(-0.00467462 0.00832844 0.0318548)
(-0.0212948 0.0113775 0.0590559)
(-0.0455083 0.0104518 0.065543)
(-0.0688706 0.00795518 0.0597176)
(-0.088803 0.00532544 0.0436998)
(-0.101771 0.00349257 0.0174242)
(-0.102736 0.00287518 -0.0170348)
(-0.0858208 0.00345011 -0.0507834)
(-0.0487333 0.00350761 -0.0638214)
(-0.011788 0.000162709 -0.0331266)
(-0.0014572 0.00300928 0.0190358)
(-0.00727714 0.00391259 0.0324578)
(-0.0163685 0.00361665 0.0361215)
(-0.0259563 0.00287108 0.0349846)
(-0.0353867 0.0021405 0.0298558)
(-0.0429362 0.00175704 0.020001)
(-0.0455711 0.00185166 0.00532507)
(-0.0394814 0.00223287 -0.0112452)
(-0.0226117 0.00197663 -0.0213477)
(-0.00549032 -0.000132622 -0.0136503)
(-0.00198126 -0.00355225 0.0297819)
(-0.00850252 -0.00440635 0.0486077)
(-0.017934 -0.00356442 0.0525511)
(-0.0282036 -0.00194641 0.0499094)
(-0.0397716 -0.000209726 0.042128)
(-0.051547 0.00109961 0.0278578)
(-0.0597511 0.00141846 0.00578614)
(-0.0576994 0.000449474 -0.021381)
(-0.0392098 -0.000741452 -0.0414948)
(-0.0120875 4.02659e-05 -0.031588)
(-0.0058643 -0.00964486 0.0496957)
(-0.0247637 -0.0124958 0.0881897)
(-0.0510653 -0.00986539 0.095525)
(-0.0766675 -0.00463952 0.0859422)
(-0.100587 0.0011406 0.0629892)
(-0.120227 0.00576178 0.0257302)
(-0.129441 0.00757965 -0.0253423)
(-0.118093 0.00534498 -0.0807021)
(-0.0779867 0.00103984 -0.111405)
(-0.0232021 0.000118804 -0.0697612)
(-0.00891778 -0.0118318 0.0556222)
(-0.0376538 -0.0158984 0.101065)
(-0.076419 -0.0120911 0.107922)
(-0.111181 -0.00448243 0.0920191)
(-0.139824 0.00396144 0.0582961)
(-0.159488 0.0106819 0.00720181)
(-0.164425 0.0133344 -0.058635)
(-0.145026 0.0102363 -0.12561)
(-0.0942262 0.00375739 -0.156467)
(-0.0276064 0.00021548 -0.091496)
(-0.0109367 -0.00907254 0.0569014)
(-0.0462014 -0.0123745 0.103885)
(-0.0926745 -0.00910177 0.109008)
(-0.131842 -0.0026542 0.0886078)
(-0.16114 0.00440763 0.0488257)
(-0.178341 0.00986534 -0.00856819)
(-0.179103 0.0116956 -0.0798301)
(-0.155168 0.00885098 -0.150198)
(-0.100292 0.00346393 -0.179397)
(-0.0292892 0.000233208 -0.102188)
(-0.0119154 -0.00334559 0.0569782)
(-0.0503477 -0.00458374 0.103997)
(-0.100362 -0.00330597 0.107904)
(-0.141091 -0.000817377 0.0852754)
(-0.169907 0.00188101 0.0430009)
(-0.18529 0.00392279 -0.0164607)
(-0.183912 0.00451268 -0.0890416)
(-0.158287 0.00336333 -0.160057)
(-0.102334 0.00133475 -0.188342)
(-0.029911 0.000100999 -0.106341)
(-0.0119154 0.00334556 0.0569782)
(-0.0503477 0.00458371 0.103997)
(-0.100362 0.00330595 0.107904)
(-0.141091 0.000817358 0.0852754)
(-0.169907 -0.00188102 0.0430009)
(-0.18529 -0.0039228 -0.0164607)
(-0.183912 -0.00451269 -0.0890416)
(-0.158287 -0.00336333 -0.160057)
(-0.102334 -0.00133475 -0.188342)
(-0.029911 -0.000101003 -0.106341)
(-0.0109367 0.00907251 0.0569014)
(-0.0462014 0.0123745 0.103885)
(-0.0926745 0.00910175 0.109008)
(-0.131842 0.00265418 0.0886078)
(-0.16114 -0.00440764 0.0488257)
(-0.178341 -0.00986535 -0.00856818)
(-0.179103 -0.0116956 -0.0798301)
(-0.155168 -0.00885098 -0.150198)
(-0.100292 -0.00346393 -0.179397)
(-0.0292892 -0.000233212 -0.102188)
(-0.00891777 0.0118318 0.0556222)
(-0.0376538 0.0158984 0.101065)
(-0.076419 0.012091 0.107922)
(-0.111181 0.00448242 0.0920191)
(-0.139824 -0.00396145 0.0582961)
(-0.159488 -0.0106819 0.00720181)
(-0.164425 -0.0133344 -0.058635)
(-0.145026 -0.0102363 -0.12561)
(-0.0942262 -0.00375739 -0.156467)
(-0.0276064 -0.000215483 -0.091496)
(-0.00586429 0.00964485 0.0496957)
(-0.0247637 0.0124958 0.0881897)
(-0.0510653 0.00986537 0.0955251)
(-0.0766675 0.00463951 0.0859422)
(-0.100587 -0.00114061 0.0629892)
(-0.120227 -0.00576178 0.0257302)
(-0.129441 -0.00757965 -0.0253423)
(-0.118093 -0.00534499 -0.0807021)
(-0.0779867 -0.00103984 -0.111405)
(-0.0232021 -0.000118805 -0.0697612)
(-0.00198126 0.00355225 0.029782)
(-0.00850251 0.00440634 0.0486078)
(-0.017934 0.00356441 0.0525511)
(-0.0282036 0.00194641 0.0499094)
(-0.0397716 0.000209722 0.042128)
(-0.051547 -0.00109961 0.0278578)
(-0.0597511 -0.00141846 0.00578614)
(-0.0576994 -0.000449474 -0.021381)
(-0.0392098 0.000741452 -0.0414948)
(-0.0120875 -4.02659e-05 -0.031588)
(-0.00329477 -0.00396337 0.0426028)
(-0.0106431 -0.00452557 0.0653648)
(-0.0189304 -0.00281449 0.067859)
(-0.028079 0.000103474 0.0626414)
(-0.0404462 0.0034438 0.051975)
(-0.0564561 0.00639033 0.0336164)
(-0.0723595 0.00778983 0.00414698)
(-0.0784444 0.00627762 -0.0359998)
(-0.0627013 0.00250846 -0.0716931)
(-0.022898 -0.000321034 -0.0639938)
(-0.00778637 -0.0104928 0.0702006)
(-0.0280748 -0.0125401 0.118602)
(-0.0531281 -0.00745163 0.124956)
(-0.0769293 0.00144415 0.110991)
(-0.101307 0.0115181 0.0820154)
(-0.125857 0.020135 0.0356333)
(-0.144681 0.0239486 -0.03107)
(-0.144267 0.0194576 -0.111845)
(-0.11052 0.00820516 -0.17182)
(-0.0388837 -0.000806286 -0.130912)
(-0.0108359 -0.0125604 0.0787775)
(-0.0409376 -0.0155917 0.136684)
(-0.0781494 -0.00862087 0.143073)
(-0.110056 0.00358727 0.122495)
(-0.137499 0.0169766 0.0822599)
(-0.160172 0.0275979 0.0212935)
(-0.173309 0.0311151 -0.0619337)
(-0.165078 0.0242516 -0.158428)
(-0.124371 0.0100796 -0.225264)
(-0.0436466 -0.000494385 -0.163626)
(-0.0127216 -0.00946979 0.0811656)
(-0.0490799 -0.0119277 0.141532)
(-0.0933907 -0.00618358 0.146404)
(-0.128482 0.00374386 0.121576)
(-0.154925 0.0142857 0.075962)
(-0.173519 0.0220419 0.00963935)
(-0.181641 0.0237497 -0.0786508)
(-0.169613 0.0176649 -0.1799)
(-0.128018 0.00705483 -0.248738)
(-0.045416 -0.000199438 -0.178088)
(-0.013596 -0.00346112 0.0817005)
(-0.0528837 -0.00437677 0.142391)
(-0.100275 -0.00218485 0.14612)
(-0.136169 0.00156292 0.1193)
(-0.161252 0.00546046 0.0717787)
(-0.177241 0.00818518 0.00415266)
(-0.183042 0.00860767 -0.0850694)
(-0.170102 0.00622611 -0.187568)
(-0.12912 0.00242721 -0.257212)
(-0.04617 -3.94908e-05 -0.183478)
(-0.013596 0.00346111 0.0817005)
(-0.0528837 0.00437675 0.142391)
(-0.100275 0.00218483 0.14612)
(-0.136169 -0.00156294 0.1193)
(-0.161252 -0.00546047 0.0717787)
(-0.177241 -0.00818519 0.00415267)
(-0.183042 -0.00860768 -0.0850694)
(-0.170102 -0.00622611 -0.187568)
(-0.12912 -0.00242722 -0.257212)
(-0.04617 3.94881e-05 -0.183478)
(-0.0127216 0.00946977 0.0811656)
(-0.0490799 0.0119277 0.141532)
(-0.0933907 0.00618357 0.146404)
(-0.128482 -0.00374387 0.121576)
(-0.154925 -0.0142857 0.075962)
(-0.173519 -0.0220419 0.00963935)
(-0.181641 -0.0237497 -0.0786508)
(-0.169613 -0.0176649 -0.1799)
(-0.128018 -0.00705483 -0.248738)
(-0.045416 0.000199435 -0.178088)
(-0.0108359 0.0125603 0.0787775)
(-0.0409376 0.0155917 0.136684)
(-0.0781494 0.00862085 0.143073)
(-0.110056 -0.00358728 0.122495)
(-0.137499 -0.0169766 0.0822599)
(-0.160172 -0.0275979 0.0212935)
(-0.173309 -0.0311151 -0.0619337)
(-0.165078 -0.0242516 -0.158428)
(-0.124371 -0.0100796 -0.225264)
(-0.0436466 0.000494382 -0.163626)
(-0.00778637 0.0104928 0.0702006)
(-0.0280748 0.01254 0.118602)
(-0.0531281 0.00745162 0.124956)
(-0.0769293 -0.00144415 0.110991)
(-0.101307 -0.0115181 0.0820154)
(-0.125857 -0.020135 0.0356333)
(-0.144681 -0.0239486 -0.03107)
(-0.144267 -0.0194576 -0.111845)
(-0.11052 -0.00820516 -0.17182)
(-0.0388837 0.000806285 -0.130912)
(-0.00329477 0.00396337 0.0426028)
(-0.0106431 0.00452557 0.0653648)
(-0.0189304 0.00281448 0.067859)
(-0.028079 -0.000103477 0.0626414)
(-0.0404462 -0.0034438 0.051975)
(-0.0564561 -0.00639033 0.0336164)
(-0.0723595 -0.00778983 0.00414699)
(-0.0784444 -0.00627762 -0.0359998)
(-0.0627013 -0.00250846 -0.0716931)
(-0.022898 0.000321035 -0.0639938)
(-0.0070326 -0.00458725 0.0595405)
(-0.016104 -0.00469613 0.081194)
(-0.0199407 -0.00185298 0.078733)
(-0.0239943 0.00266814 0.0690278)
(-0.0332868 0.00797803 0.0551979)
(-0.0507146 0.0131445 0.0338222)
(-0.0743892 0.0163529 -0.00118951)
(-0.0924826 0.0146523 -0.0544969)
(-0.0877425 0.00728349 -0.110884)
(-0.0362258 -0.00138165 -0.117528)
(-0.0125694 -0.0115033 0.0950269)
(-0.0340595 -0.0123856 0.147262)
(-0.0517561 -0.00447227 0.148457)
(-0.0657822 0.00827085 0.128885)
(-0.0819104 0.0227783 0.0956964)
(-0.103374 0.0358482 0.0449647)
(-0.127522 0.0424747 -0.0307012)
(-0.14037 0.0359674 -0.134366)
(-0.127081 0.015893 -0.233413)
(-0.050027 -0.00440656 -0.221311)
(-0.0152747 -0.0131594 0.10536)
(-0.0451106 -0.014925 0.16974)
(-0.0729615 -0.00482692 0.172237)
(-0.0923008 0.0114282 0.147336)
(-0.108011 0.0289936 0.104467)
(-0.123676 0.0430698 0.0407904)
(-0.138786 0.0477413 -0.0503446)
(-0.142808 0.0372589 -0.171899)
(-0.128346 0.0144061 -0.285913)
(-0.050929 -0.00428406 -0.263477)
(-0.0167088 -0.00966085 0.108185)
(-0.0515269 -0.0111785 0.176043)
(-0.0848817 -0.00323476 0.177908)
(-0.105636 0.00939436 0.150044)
(-0.118522 0.0224627 0.10346)
(-0.128325 0.0319417 0.0360381)
(-0.137263 0.033624 -0.0590169)
(-0.137821 0.0245902 -0.186205)
(-0.126225 0.00861083 -0.306155)
(-0.0513839 -0.00271124 -0.280533)
(-0.0173164 -0.00348544 0.108859)
(-0.0543524 -0.00405786 0.177369)
(-0.0899065 -0.00109529 0.178488)
(-0.110615 0.00356518 0.149301)
(-0.121424 0.00826419 0.101679)
(-0.128137 0.0114677 0.0337474)
(-0.134685 0.0117267 -0.0618628)
(-0.134875 0.00826875 -0.19086)
(-0.125596 0.00274628 -0.313269)
(-0.0519037 -0.00088183 -0.286833)
(-0.0173164 0.00348543 0.108859)
(-0.0543524 0.00405785 0.177369)
(-0.0899065 0.00109528 0.178488)
(-0.110615 -0.00356519 0.149301)
(-0.121424 -0.0082642 0.101679)
(-0.128137 -0.0114677 0.0337474)
(-0.134685 -0.0117267 -0.0618628)
(-0.134875 -0.00826875 -0.19086)
(-0.125596 -0.00274628 -0.313269)
(-0.0519037 0.000881828 -0.286833)
(-0.0167088 0.00966084 0.108185)
(-0.0515269 0.0111785 0.176043)
(-0.0848817 0.00323475 0.177908)
(-0.105636 -0.00939437 0.150044)
(-0.118522 -0.0224627 0.10346)
(-0.128325 -0.0319417 0.0360381)
(-0.137263 -0.033624 -0.0590169)
(-0.137821 -0.0245902 -0.186205)
(-0.126225 -0.00861083 -0.306155)
(-0.0513839 0.00271124 -0.280533)
(-0.0152747 0.0131594 0.10536)
(-0.0451106 0.014925 0.16974)
(-0.0729615 0.00482691 0.172237)
(-0.0923008 -0.0114282 0.147336)
(-0.108011 -0.0289936 0.104467)
(-0.123676 -0.0430698 0.0407904)
(-0.138786 -0.0477413 -0.0503446)
(-0.142808 -0.0372589 -0.171899)
(-0.128346 -0.0144061 -0.285913)
(-0.050929 0.00428406 -0.263477)
(-0.0125694 0.0115033 0.0950269)
(-0.0340595 0.0123856 0.147262)
(-0.0517561 0.00447226 0.148457)
(-0.0657822 -0.00827085 0.128885)
(-0.0819104 -0.0227783 0.0956964)
(-0.103374 -0.0358482 0.0449647)
(-0.127522 -0.0424747 -0.0307012)
(-0.14037 -0.0359674 -0.134366)
(-0.127081 -0.015893 -0.233413)
(-0.050027 0.00440656 -0.221311)
(-0.0070326 0.00458724 0.0595405)
(-0.016104 0.00469612 0.081194)
(-0.0199407 0.00185298 0.078733)
(-0.0239943 -0.00266814 0.0690279)
(-0.0332868 -0.00797803 0.0551979)
(-0.0507145 -0.0131445 0.0338222)
(-0.0743892 -0.0163529 -0.00118951)
(-0.0924826 -0.0146523 -0.0544969)
(-0.0877425 -0.00728349 -0.110884)
(-0.0362258 0.00138165 -0.117528)
(-0.016483 -0.0062659 0.0819399)
(-0.028052 -0.00637477 0.0927177)
(-0.0176372 -0.00254145 0.0809085)
(-0.00833031 0.00345292 0.0645896)
(-0.00692352 0.010443 0.047646)
(-0.0186078 0.0177073 0.0254738)
(-0.0455084 0.0232754 -0.0112612)
(-0.0762259 0.0218573 -0.0739696)
(-0.0965017 0.0102236 -0.153278)
(-0.041845 -0.00613924 -0.196205)
(-0.0254521 -0.0143779 0.122862)
(-0.0492705 -0.0150789 0.167609)
(-0.0443131 -0.00536413 0.15862)
(-0.0330965 0.00976738 0.131351)
(-0.0255852 0.026897 0.0962192)
(-0.0282945 0.0432452 0.0484403)
(-0.0459083 0.0537595 -0.0238517)
(-0.0676924 0.0473735 -0.137295)
(-0.0947415 0.0188312 -0.275054)
(-0.0358177 -0.0145273 -0.327012)
(-0.0282303 -0.0152167 0.132881)
(-0.0586895 -0.0168907 0.192686)
(-0.0604173 -0.00552528 0.187097)
(-0.0499405 0.0120036 0.156529)
(-0.0373099 0.0308901 0.114402)
(-0.0290345 0.046843 0.0568544)
(-0.0329924 0.0541444 -0.0272279)
(-0.0428699 0.0432815 -0.157078)
(-0.0742714 0.0136544 -0.315494)
(-0.0274103 -0.0126725 -0.368352)
(-0.029236 -0.0106336 0.135155)
(-0.0630304 -0.0120848 0.199534)
(-0.0681816 -0.00358135 0.19481)
(-0.0574399 0.0092725 0.163054)
(-0.041097 0.0225334 0.118972)
(-0.0261589 0.0327122 0.0590632)
(-0.0232188 0.0358778 -0.0278751)
(-0.0290419 0.0267076 -0.16314)
(-0.0658104 0.00729316 -0.329602)
(-0.0256227 -0.00750956 -0.383614)
(-0.0295539 -0.00374384 0.135593)
(-0.0646472 -0.00428923 0.200922)
(-0.0709674 -0.00119062 0.196098)
(-0.0596653 0.00342657 0.163862)
(-0.0413652 0.00805912 0.119457)
(-0.0235831 0.0114142 0.059395)
(-0.0184289 0.0121647 -0.0279887)
(-0.0239535 0.00872122 -0.165167)
(-0.0639206 0.002222 -0.334738)
(-0.025818 -0.00236672 -0.389253)
(-0.0295539 0.00374383 0.135593)
(-0.0646472 0.00428922 0.200922)
(-0.0709674 0.00119061 0.196098)
(-0.0596653 -0.00342658 0.163862)
(-0.0413652 -0.00805912 0.119457)
(-0.0235831 -0.0114142 0.059395)
(-0.0184289 -0.0121647 -0.0279887)
(-0.0239535 -0.00872122 -0.165167)
(-0.0639206 -0.002222 -0.334738)
(-0.025818 0.00236672 -0.389253)
(-0.029236 0.0106336 0.135155)
(-0.0630304 0.0120848 0.199534)
(-0.0681816 0.00358134 0.19481)
(-0.0574399 -0.0092725 0.163054)
(-0.041097 -0.0225334 0.118972)
(-0.0261589 -0.0327123 0.0590632)
(-0.0232188 -0.0358778 -0.0278751)
(-0.0290419 -0.0267076 -0.16314)
(-0.0658104 -0.00729317 -0.329602)
(-0.0256227 0.00750955 -0.383614)
(-0.0282303 0.0152167 0.132881)
(-0.0586895 0.0168907 0.192686)
(-0.0604173 0.00552527 0.187097)
(-0.0499405 -0.0120036 0.156529)
(-0.0373099 -0.0308901 0.114402)
(-0.0290345 -0.046843 0.0568544)
(-0.0329924 -0.0541444 -0.0272279)
(-0.0428699 -0.0432815 -0.157078)
(-0.0742714 -0.0136544 -0.315494)
(-0.0274103 0.0126725 -0.368352)
(-0.0254521 0.0143778 0.122862)
(-0.0492705 0.0150788 0.167609)
(-0.0443131 0.00536413 0.15862)
(-0.0330965 -0.00976739 0.131351)
(-0.0255852 -0.026897 0.0962192)
(-0.0282945 -0.0432452 0.0484403)
(-0.0459083 -0.0537595 -0.0238517)
(-0.0676924 -0.0473735 -0.137295)
(-0.0947415 -0.0188312 -0.275054)
(-0.0358177 0.0145273 -0.327012)
(-0.016483 0.0062659 0.0819399)
(-0.028052 0.00637477 0.0927177)
(-0.0176372 0.00254145 0.0809085)
(-0.0083303 -0.00345292 0.0645896)
(-0.00692351 -0.010443 0.047646)
(-0.0186078 -0.0177073 0.0254738)
(-0.0455084 -0.0232754 -0.0112612)
(-0.0762259 -0.0218573 -0.0739696)
(-0.0965017 -0.0102236 -0.153278)
(-0.041845 0.00613924 -0.196205)
(-0.0238308 -0.0112237 0.150168)
(-0.02018 -0.0121203 0.0981672)
(0.0283527 -0.00748616 0.0628895)
(0.062684 -0.000891683 0.041481)
(0.0834074 0.00653052 0.0249783)
(0.0855149 0.0144088 0.00710162)
(0.0631445 0.0216069 -0.0215089)
(0.0255685 0.0207823 -0.0790433)
(-0.0421198 0.00503458 -0.174231)
(-0.00680319 -0.0179554 -0.259858)
(-0.0424678 -0.0230254 0.209703)
(-0.041347 -0.0262044 0.169963)
(0.0237717 -0.0167648 0.128371)
(0.0797342 -0.00246317 0.0961002)
(0.124418 0.0138496 0.0662909)
(0.152252 0.0303357 0.0323462)
(0.150346 0.044525 -0.0171672)
(0.131161 0.0425017 -0.107589)
(0.040226 0.00983923 -0.256556)
(0.0437777 -0.0321137 -0.369691)
(-0.0477339 -0.0209539 0.21996)
(-0.0508702 -0.0259732 0.190577)
(0.0133721 -0.0171349 0.152055)
(0.074026 -0.0027422 0.11848)
(0.127673 0.0135907 0.084824)
(0.16947 0.0289497 0.0449916)
(0.181763 0.0400563 -0.0115084)
(0.176932 0.0352742 -0.110621)
(0.081122 0.00555212 -0.275342)
(0.0632611 -0.0228667 -0.395289)
(-0.0487579 -0.0134279 0.220997)
(-0.0536521 -0.0172565 0.194759)
(0.0093575 -0.01125 0.15779)
(0.0712554 -0.00151904 0.124451)
(0.127975 0.00920883 0.0901938)
(0.174985 0.0188037 0.0489312)
(0.192138 0.0248226 -0.00977011)
(0.191398 0.0207052 -0.111792)
(0.0912369 0.00319114 -0.281963)
(0.0663383 -0.0120208 -0.403965)
(-0.0488084 -0.00453452 0.220804)
(-0.0540913 -0.00590676 0.195098)
(0.00865665 -0.00379529 0.158446)
(0.0711363 -0.000425968 0.125235)
(0.128919 0.00320591 0.0910529)
(0.177502 0.00635365 0.0497072)
(0.19576 0.00817119 -0.00953922)
(0.195235 0.0066545 -0.112685)
(0.0924062 0.00106512 -0.284722)
(0.0659752 -0.00358044 -0.407127)
(-0.0488084 0.00453451 0.220804)
(-0.0540913 0.00590675 0.195098)
(0.00865665 0.00379529 0.158446)
(0.0711363 0.000425961 0.125235)
(0.128919 -0.00320592 0.0910529)
(0.177502 -0.00635366 0.0497072)