/*--------------------------------*- C++ -*----------------------------------*\
  =========                 |
  \\      /  F ield         | OpenFOAM: The Open Source CFD Toolbox
   \\    /   O peration     | Website:  https://openfoam.org
    \\  /    A nd           | Version:  9
     \\/     M anipulation  |
\*---------------------------------------------------------------------------*/
FoamFile
{
    format      ascii;
    class       volScalarField;
    location    "0.49";
    object      p;
}
// * * * * * * * * * * * * * * * * * * * * * * * * * * * * * * * * * * * * * //

dimensions      [0 2 -2 0 0 0 0];

internalField   nonuniform List<scalar> 
1000
(
-1.33372e-06
-0.000446893
-5.54857e-05
0.00109769
0.00305322
0.00566997
0.00850073
0.0108128
0.0119154
0.0111018
0.000170286
-0.000654948
-0.000361286
0.000832903
0.0029539
0.00584587
0.00899583
0.011518
0.0125711
0.0112319
0.000858175
-0.000213838
4.54409e-05
0.00132892
0.00367229
0.00690105
0.0104087
0.0130836
0.0139264
0.0118955
0.00158346
0.000353642
0.000600364
0.00197011
0.00451185
0.00804229
0.0118032
0.014551
0.0151774
0.0126066
0.00203267
0.000730786
0.000975959
0.00239554
0.00504505
0.00873012
0.0126291
0.0154017
0.0158998
0.0130471
0.00203257
0.000730713
0.000975892
0.00239549
0.005045
0.00873008
0.0126291
0.0154016
0.0158998
0.013047
0.00158316
0.000353405
0.000600165
0.00196995
0.0045117
0.00804217
0.0118031
0.0145509
0.0151773
0.0126065
0.000857554
-0.000214304
4.5082e-05
0.00132865
0.00367206
0.00690086
0.0104086
0.0130835
0.0139263
0.0118954
0.000169068
-0.000655722
-0.000361809
0.000832551
0.00295364
0.00584567
0.00899565
0.0115178
0.012571
0.0112317
-3.99698e-06
-0.000448071
-5.61682e-05
0.00109726
0.00305292
0.00566973
0.00850053
0.0108126
0.0119152
0.0111017
0.000350345
-6.17073e-05
0.00035125
0.00139564
0.00313286
0.00548975
0.00810489
0.0103389
0.011462
0.0103867
0.000872565
1.77141e-05
0.0003556
0.00138743
0.00315133
0.00558961
0.00833918
0.0106889
0.0117729
0.0100539
0.00195852
0.000743579
0.00102642
0.00206182
0.00389245
0.00646453
0.00943834
0.0118685
0.0127673
0.0103342
0.0029553
0.00148077
0.00171695
0.002759
0.00466185
0.00739153
0.0105248
0.0129928
0.0137091
0.0107595
0.0035373
0.00192985
0.00214054
0.00318665
0.00513065
0.00795278
0.0111695
0.0136476
0.0142576
0.0110548
0.00353722
0.00192979
0.00214048
0.0031866
0.0051306
0.00795274
0.0111694
0.0136476
0.0142576
0.0110547
0.00295505
0.00148057
0.00171677
0.00275885
0.00466172
0.00739142
0.0105246
0.0129926
0.013709
0.0107594
0.00195804
0.000743209
0.00102612
0.00206159
0.00389225
0.00646436
0.00943818
0.0118683
0.0127671
0.010334
0.000871766
1.71259e-05
0.00035517
0.00138712
0.00315109
0.00558942
0.00833901
0.0106887
0.0117727
0.0100537
0.000349145
-6.25066e-05
0.000350719
0.00139528
0.0031326
0.00548954
0.00810469
0.0103387
0.0114619
0.0103865
-0.000953924
-0.00149882
-0.00117478
-0.000283995
0.00132175
0.00372654
0.00670531
0.00959982
0.0113547
0.0100965
-0.000125207
-0.00126923
-0.00102508
-0.000145982
0.00148642
0.00399515
0.00715495
0.0102133
0.0119015
0.00952773
0.00143904
-0.000224699
-8.13706e-05
0.000730405
0.00235491
0.00497601
0.00833184
0.0115114
0.0130091
0.00962341
0.00281519
0.000777078
0.000826908
0.00157486
0.00319647
0.00591078
0.00940832
0.0126402
0.0139486
0.0098877
0.00359909
0.00136894
0.00136494
0.00207589
0.00369733
0.00646222
0.0100254
0.0132672
0.0144656
0.0100923
0.00359903
0.00136889
0.00136489
0.00207585
0.00369729
0.00646218
0.0100254
0.0132672
0.0144655
0.0100923
0.002815
0.000776915
0.000826755
0.00157473
0.00319634
0.00591066
0.0094082
0.0126401
0.0139484
0.00988758
0.0014387
-0.00022498
-8.16189e-05
0.000730201
0.00235472
0.00497584
0.00833168
0.0115112
0.013009
0.00962324
-0.000125708
-0.00126964
-0.00102542
-0.000146252
0.00148619
0.00399495
0.00715476
0.0102131
0.0119014
0.00952755
-0.000954573
-0.00149935
-0.00117518
-0.000284295
0.00132152
0.00372632
0.00670511
0.00959964
0.0113545
0.0100963
-0.00428763
-0.00495597
-0.00476473
-0.00409732
-0.00265208
-5.6417e-05
0.00374876
0.00816567
0.0115609
0.0106831
-0.00313854
-0.00456104
-0.0044552
-0.00378564
-0.00228583
0.000467814
0.00455345
0.00929803
0.0126315
0.0100635
-0.00106291
-0.00317206
-0.00325449
-0.0027829
-0.00143817
0.00133129
0.00557419
0.0105614
0.0138126
0.0100777
0.000729856
-0.00187383
-0.00213401
-0.00185427
-0.000661696
0.00205926
0.00641058
0.0115177
0.0146584
0.0102251
0.00173832
-0.00111842
-0.00148149
-0.00131291
-0.000205047
0.00248947
0.00687127
0.0120085
0.0150787
0.0103488
0.00173827
-0.00111847
-0.00148153
-0.00131294
-0.00020508
0.00248944
0.00687124
0.0120084
0.0150786
0.0103488
0.000729701
-0.00187397
-0.00213414
-0.00185438
-0.0006618
0.00205916
0.00641049
0.0115176
0.0146583
0.0102251
-0.00106317
-0.00317229
-0.0032547
-0.00278307
-0.00143832
0.00133115
0.00557407
0.0105612
0.0138125
0.0100775
-0.00313888
-0.00456136
-0.00445548
-0.00378588
-0.00228603
0.000467636
0.00455329
0.00929788
0.0126314
0.0100634
-0.00428806
-0.00495637
-0.00476506
-0.00409759
-0.0026523
-5.661e-05
0.00374859
0.00816551
0.0115608
0.0106829
-0.010343
-0.0109762
-0.0108602
-0.0104593
-0.00926707
-0.0064467
-0.00134429
0.00577187
0.01248
0.0136506
-0.00889172
-0.0104256
-0.0104207
-0.0100408
-0.00881489
-0.00586797
-0.000458704
0.00721319
0.0140646
0.0133984
-0.00637027
-0.0087589
-0.00910456
-0.00917765
-0.00843302
-0.00579636
-0.000397874
0.00769334
0.0148409
0.0134557
-0.00422805
-0.00722759
-0.0078933
-0.0083798
-0.008054
-0.00568869
-0.000367119
0.00793518
0.0152424
0.0135381
-0.00303694
-0.00634676
-0.00719382
-0.00791073
-0.00780903
-0.0055876
-0.000333402
0.00803118
0.0153926
0.0135888
-0.00303698
-0.0063468
-0.00719386
-0.00791076
-0.00780905
-0.00558763
-0.000333423
0.00803115
0.0153925
0.0135887
-0.00422818
-0.0072277
-0.00789342
-0.00837989
-0.00805407
-0.00568875
-0.000367175
0.00793512
0.0152423
0.013538
-0.00637049
-0.00875909
-0.00910473
-0.00917779
-0.00843313
-0.00579645
-0.00039795
0.00769326
0.0148408
0.0134557
-0.00889199
-0.0104259
-0.010421
-0.010041
-0.00881504
-0.00586809
-0.0004588
0.0072131
0.0140645
0.0133984
-0.0103434
-0.0109766
-0.0108604
-0.0104595
-0.00926723
-0.00644683
-0.00134439
0.00577178
0.01248
0.0136505
-0.01982
-0.0199027
-0.0195327
-0.0192907
-0.0183875
-0.0153757
-0.00858639
0.00257777
0.0152434
0.0218322
-0.0180748
-0.0192421
-0.0190782
-0.0189888
-0.0182959
-0.0155493
-0.00890258
0.00279963
0.0161101
0.0221971
-0.0152049
-0.0173979
-0.0178404
-0.018618
-0.018939
-0.0171276
-0.0109798
0.00123091
0.0155912
0.022263
-0.012822
-0.015727
-0.0166848
-0.0181811
-0.0193085
-0.0182006
-0.012424
3.81601e-05
0.0150179
0.022221
-0.0115175
-0.0147776
-0.0160168
-0.0178915
-0.0194229
-0.0186631
-0.0130759
-0.000538163
0.0146974
0.0221683
-0.0115175
-0.0147777
-0.0160168
-0.0178915
-0.0194229
-0.0186631
-0.0130759
-0.000538167
0.0146974
0.0221683
-0.0128221
-0.0157271
-0.0166849
-0.0181812
-0.0193086
-0.0182006
-0.012424
3.8154e-05
0.0150179
0.022221
-0.015205
-0.0173981
-0.0178406
-0.0186181
-0.0189391
-0.0171277
-0.0109798
0.00123089
0.0155912
0.022263
-0.018075
-0.0192423
-0.0190784
-0.0189889
-0.018296
-0.0155493
-0.00890262
0.00279962
0.0161101
0.0221971
-0.0198202
-0.019903
-0.0195329
-0.0192908
-0.0183876
-0.0153758
-0.00858644
0.00257774
0.0152434
0.0218322
-0.0338986
-0.0317345
-0.0301485
-0.0295525
-0.0287955
-0.0256826
-0.0172403
-0.000843938
0.0209002
0.0395214
-0.031667
-0.0309164
-0.0297925
-0.0297144
-0.0297153
-0.0277328
-0.0205309
-0.00427072
0.0186496
0.039659
-0.0284244
-0.0288439
-0.0286535
-0.0299584
-0.031674
-0.0315151
-0.0256514
-0.00908126
0.0156648
0.0395207
-0.0258482
-0.0270335
-0.0275548
-0.0298955
-0.0328228
-0.033845
-0.0287698
-0.0120016
0.0137985
0.039393
-0.024474
-0.0260296
-0.0269221
-0.0297736
-0.0332643
-0.0348093
-0.0300785
-0.0132461
0.0129855
0.0393137
-0.024474
-0.0260297
-0.0269221
-0.0297736
-0.0332643
-0.0348093
-0.0300785
-0.0132461
0.0129855
0.0393137
-0.0258483
-0.0270336
-0.0275549
-0.0298955
-0.0328228
-0.033845
-0.0287698
-0.0120016
0.0137985
0.039393
-0.0284246
-0.028844
-0.0286536
-0.0299585
-0.0316741
-0.0315151
-0.0256514
-0.00908122
0.0156648
0.0395207
-0.0316671
-0.0309166
-0.0297927
-0.0297145
-0.0297154
-0.0277329
-0.0205309
-0.00427069
0.0186496
0.039659
-0.0338988
-0.0317347
-0.0301487
-0.0295526
-0.0287956
-0.0256827
-0.0172403
-0.000843899
0.0209002
0.0395214
-0.05651
-0.0461288
-0.0412524
-0.0390243
-0.0378182
-0.0343815
-0.0246971
-0.00238777
0.0308048
0.0735745
-0.0531302
-0.0446577
-0.0406811
-0.0397311
-0.0400932
-0.0388812
-0.0321106
-0.0113444
0.0230881
0.0740013
-0.0489422
-0.0417476
-0.0389548
-0.0399619
-0.0427084
-0.0439795
-0.039318
-0.0184784
0.0183351
0.0753627
-0.0458896
-0.0394442
-0.0374573
-0.0397391
-0.0440115
-0.0467191
-0.0431279
-0.0219742
0.0163015
0.0766503
-0.0443456
-0.0382443
-0.0366596
-0.0395329
-0.0444675
-0.0477608
-0.0446015
-0.0232822
0.0156341
0.0772672
-0.0443456
-0.0382443
-0.0366596
-0.0395329
-0.0444675
-0.0477608
-0.0446015
-0.0232822
0.0156341
0.0772672
-0.0458897
-0.0394443
-0.0374574
-0.0397391
-0.0440116
-0.0467191
-0.0431279
-0.0219741
0.0163016
0.0766504
-0.0489423
-0.0417478
-0.038955
-0.039962
-0.0427085
-0.0439795
-0.039318
-0.0184783
0.0183352
0.0753628
-0.0531304
-0.0446579
-0.0406812
-0.0397312
-0.0400932
-0.0388812
-0.0321106
-0.0113443
0.0230882
0.0740014
-0.0565102
-0.046129
-0.0412525
-0.0390244
-0.0378183
-0.0343815
-0.0246971
-0.00238772
0.0308049
0.0735745
-0.0882307
-0.0605909
-0.0512594
-0.0454488
-0.0425957
-0.0380723
-0.0256441
0.00511468
0.0518158
0.150908
-0.0805243
-0.0567603
-0.0498976
-0.0464933
-0.0459731
-0.0441862
-0.0355132
-0.00572638
0.0453528
0.162449
-0.0741431
-0.0520357
-0.0467339
-0.045813
-0.0482137
-0.0491244
-0.0425779
-0.0111925
0.046219
0.171365
-0.0701945
-0.0488026
-0.0443728
-0.0449667
-0.0491074
-0.0515434
-0.0458505
-0.0131578
0.0474198
0.176967
-0.0683818
-0.0472505
-0.0432223
-0.0444943
-0.0493804
-0.0524422
-0.0470469
-0.0138149
0.0480782
0.179389
-0.0683819
-0.0472505
-0.0432224
-0.0444943
-0.0493804
-0.0524422
-0.0470469
-0.0138149
0.0480782
0.179389
-0.0701946
-0.0488028
-0.0443729
-0.0449667
-0.0491074
-0.0515434
-0.0458504
-0.0131577
0.0474198
0.176967
-0.0741432
-0.0520358
-0.046734
-0.0458132
-0.0482138
-0.0491244
-0.0425779
-0.0111924
0.046219
0.171365
-0.0805245
-0.0567605
-0.0498977
-0.0464935
-0.0459732
-0.0441862
-0.0355132
-0.00572634
0.0453529
0.162449
-0.0882309
-0.0605911
-0.0512595
-0.0454489
-0.0425958
-0.0380724
-0.0256441
0.0051147
0.0518159
0.150908
-0.198658
-0.0734501
-0.0483595
-0.0397042
-0.0352678
-0.028527
-0.011773
0.0331733
0.119124
0.324615
-0.186436
-0.0608985
-0.0407017
-0.0363931
-0.0355535
-0.0321145
-0.0178123
0.0298996
0.129496
0.359112
-0.177642
-0.0521457
-0.0341918
-0.03291
-0.0352406
-0.0342169
-0.0209422
0.0298302
0.138668
0.379843
-0.172582
-0.0471884
-0.0302187
-0.0306364
-0.0348234
-0.0351638
-0.0222511
0.0301655
0.143168
0.389775
-0.170362
-0.0450433
-0.0284732
-0.0296153
-0.0346056
-0.035547
-0.0227858
0.0302915
0.144861
0.393542
-0.170362
-0.0450434
-0.0284733
-0.0296153
-0.0346056
-0.035547
-0.0227858
0.0302915
0.144861
0.393542
-0.172582
-0.0471885
-0.0302188
-0.0306365
-0.0348235
-0.0351638
-0.0222511
0.0301656
0.143168
0.389775
-0.177643
-0.0521458
-0.0341919
-0.0329101
-0.0352407
-0.0342169
-0.0209422
0.0298303
0.138668
0.379843
-0.186436
-0.0608986
-0.0407018
-0.0363933
-0.0355536
-0.0321146
-0.0178123
0.0298996
0.129496
0.359112
-0.198659
-0.0734503
-0.0483596
-0.0397043
-0.0352679
-0.0285271
-0.011773
0.0331733
0.119124
0.324615
)
;

boundaryField
{
    top
    {
        type            zeroGradient;
    }
    others
    {
        type            zeroGradient;
    }
}


// ************************************************************************* //
