/*--------------------------------*- C++ -*----------------------------------*\
  =========                 |
  \\      /  F ield         | OpenFOAM: The Open Source CFD Toolbox
   \\    /   O peration     | Website:  https://openfoam.org
    \\  /    A nd           | Version:  9
     \\/     M anipulation  |
\*---------------------------------------------------------------------------*/
FoamFile
{
    format      ascii;
    class       surfaceScalarField;
    location    "0.49";
    object      phi;
}
// * * * * * * * * * * * * * * * * * * * * * * * * * * * * * * * * * * * * * //

dimensions      [0 3 -1 0 0 0 0];

internalField   nonuniform List<scalar> 
2700
(
-6.63657e-08
-9.37388e-08
1.60142e-07
-3.14629e-07
-9.94061e-08
3.47669e-07
-6.34528e-07
-9.8466e-08
4.18365e-07
-9.43188e-07
-1.18264e-07
4.26924e-07
-1.15829e-06
-1.67106e-07
3.82204e-07
-1.18843e-06
-2.40169e-07
2.70315e-07
-9.69664e-07
-3.13045e-07
9.42762e-08
-5.39541e-07
-3.39494e-07
-9.06286e-08
-1.07361e-07
-2.73874e-07
-1.58305e-07
-8.96255e-08
-1.7736e-08
-1.66048e-07
-1.99347e-07
2.71656e-07
-6.8688e-07
-2.57677e-07
6.79103e-07
-1.33424e-06
-2.74016e-07
8.22909e-07
-1.93456e-06
-3.11803e-07
7.93864e-07
-2.32942e-06
-3.89118e-07
6.16865e-07
-2.35502e-06
-4.96016e-07
2.81445e-07
-1.90407e-06
-5.91059e-07
-1.72929e-07
-1.06464e-06
-6.05911e-07
-5.73018e-07
-2.38141e-07
-4.84205e-07
-6.16168e-07
-1.95489e-07
-1.32278e-07
-2.35479e-07
-2.13925e-07
2.50058e-07
-9.29953e-07
-2.98995e-07
7.35792e-07
-1.77768e-06
-3.25699e-07
8.99408e-07
-2.54836e-06
-3.64191e-07
8.23066e-07
-3.0357e-06
-4.35002e-07
5.33233e-07
-3.03326e-06
-5.29259e-07
3.07945e-08
-2.40929e-06
-6.01799e-07
-6.13225e-07
-1.30134e-06
-5.99447e-07
-1.11442e-06
-2.57324e-07
-4.78001e-07
-1.05022e-06
-2.106e-07
-2.42213e-07
-2.77996e-07
-1.34151e-07
1.98221e-07
-1.07986e-06
-1.93883e-07
6.96748e-07
-2.0507e-06
-2.13204e-07
8.58344e-07
-2.92341e-06
-2.36529e-07
7.45051e-07
-3.461e-06
-2.76786e-07
3.79375e-07
-3.42076e-06
-3.28145e-07
-2.41352e-07
-2.67367e-06
-3.65938e-07
-9.8296e-07
-1.39339e-06
-3.59387e-07
-1.52033e-06
-2.34471e-07
-2.86662e-07
-1.35026e-06
-1.31681e-07
-3.1339e-07
-2.98351e-07
1.80521e-12
1.64198e-07
-1.15159e-06
1.34674e-12
6.59353e-07
-2.18126e-06
1.0847e-12
8.16463e-07
-3.10177e-06
8.13674e-13
6.83981e-07
-3.65991e-06
6.66226e-13
2.8136e-07
-3.59797e-06
4.88241e-13
-3.90093e-07
-2.78566e-06
3.67328e-13
-1.17824e-06
-1.4214e-06
2.95414e-13
-1.72365e-06
-2.14135e-07
2.49286e-13
-1.49393e-06
2.17631e-13
-3.45816e-07
-2.98351e-07
1.34154e-07
1.64198e-07
-1.15159e-06
1.93885e-07
6.59353e-07
-2.18126e-06
2.13206e-07
8.16463e-07
-3.10177e-06
2.36531e-07
6.83981e-07
-3.65991e-06
2.76787e-07
2.8136e-07
-3.59797e-06
3.28145e-07
-3.90093e-07
-2.78566e-06
3.65939e-07
-1.17824e-06
-1.4214e-06
3.59387e-07
-1.72365e-06
-2.14135e-07
2.86662e-07
-1.49393e-06
1.31681e-07
-3.45816e-07
-2.77996e-07
2.1393e-07
1.98221e-07
-1.07986e-06
2.98998e-07
6.96748e-07
-2.0507e-06
3.25701e-07
8.58344e-07
-2.92341e-06
3.64193e-07
7.45051e-07
-3.461e-06
4.35004e-07
3.79375e-07
-3.42076e-06
5.2926e-07
-2.41352e-07
-2.67367e-06
6.018e-07
-9.8296e-07
-1.3934e-06
5.99448e-07
-1.52033e-06
-2.34471e-07
4.78001e-07
-1.35026e-06
2.106e-07
-3.1339e-07
-2.3548e-07
1.99352e-07
2.50057e-07
-9.29954e-07
2.57681e-07
7.35792e-07
-1.77768e-06
2.74019e-07
8.99408e-07
-2.54836e-06
3.11804e-07
8.23066e-07
-3.03571e-06
3.89119e-07
5.33233e-07
-3.03326e-06
4.96016e-07
3.07944e-08
-2.40929e-06
5.9106e-07
-6.13225e-07
-1.30134e-06
6.05911e-07
-1.11442e-06
-2.57325e-07
4.84205e-07
-1.05022e-06
1.95489e-07
-2.42213e-07
-1.66051e-07
9.37502e-08
2.71654e-07
-6.86883e-07
9.94101e-08
6.79102e-07
-1.33424e-06
9.84678e-08
8.22908e-07
-1.93457e-06
1.18265e-07
7.93864e-07
-2.32942e-06
1.67106e-07
6.16865e-07
-2.35502e-06
2.40169e-07
2.81445e-07
-1.90407e-06
3.13046e-07
-1.72929e-07
-1.06464e-06
3.39495e-07
-5.73018e-07
-2.38141e-07
2.73875e-07
-6.16168e-07
8.96257e-08
-1.32278e-07
-6.63791e-08
1.60129e-07
-3.14636e-07
3.47666e-07
-6.34532e-07
4.18364e-07
-9.4319e-07
4.26923e-07
-1.15829e-06
3.82204e-07
-1.18843e-06
2.70315e-07
-9.69664e-07
9.42761e-08
-5.39541e-07
-9.06287e-08
-1.07362e-07
-1.58305e-07
-1.77358e-08
-2.23463e-07
-2.47648e-07
6.31252e-07
-7.25075e-07
-3.19896e-07
1.16918e-06
-1.31885e-06
-3.32844e-07
1.34498e-06
-1.87514e-06
-3.45587e-07
1.32881e-06
-2.25909e-06
-3.80778e-07
1.14693e-06
-2.32092e-06
-4.38691e-07
7.70836e-07
-1.95e-06
-4.94062e-07
2.17414e-07
-1.18009e-06
-4.90993e-07
-3.6954e-07
-3.32267e-07
-3.65358e-07
-6.40772e-07
-7.55887e-08
-2.74415e-07
-5.89671e-07
-4.39354e-07
1.05303e-06
-1.77125e-06
-6.25628e-07
2.16642e-06
-3.11595e-06
-6.66323e-07
2.50108e-06
-4.31196e-06
-6.92077e-07
2.33637e-06
-5.07015e-06
-7.48179e-07
1.74246e-06
-5.11e-06
-8.31449e-07
7.14047e-07
-4.24733e-06
-9.02301e-07
-6.27359e-07
-2.59546e-06
-8.71417e-07
-1.84447e-06
-8.09295e-07
-6.60049e-07
-2.10764e-06
-2.12485e-07
-8.04677e-07
-8.47388e-07
-4.37844e-07
1.09594e-06
-2.4927e-06
-6.55761e-07
2.41124e-06
-4.32186e-06
-7.07478e-07
2.76972e-06
-5.89837e-06
-7.3411e-07
2.44162e-06
-6.83671e-06
-7.84385e-07
1.50778e-06
-6.80228e-06
-8.55325e-07
2.02376e-08
-5.56781e-06
-8.99016e-07
-1.85098e-06
-3.3443e-06
-8.51815e-07
-3.35753e-06
-1.0172e-06
-6.52607e-07
-3.38476e-06
-2.49031e-07
-1.22287e-06
-1.00412e-06
-2.65513e-07
1.03001e-06
-2.93861e-06
-4.0768e-07
2.38316e-06
-5.06216e-06
-4.42567e-07
2.71698e-06
-6.85609e-06
-4.58444e-07
2.26331e-06
-7.87951e-06
-4.85703e-07
1.10412e-06
-7.75701e-06
-5.22351e-07
-6.96827e-07
-6.26917e-06
-5.39495e-07
-2.83033e-06
-3.69631e-06
-5.05685e-07
-4.43932e-06
-1.08011e-06
-3.90391e-07
-4.22868e-06
-1.60794e-07
-1.48174e-06
-1.07692e-06
1.45555e-12
9.75607e-07
-3.14929e-06
7.73215e-13
2.32404e-06
-5.41153e-06
5.32173e-13
2.63614e-06
-7.30356e-06
4.00353e-13
2.11756e-06
-8.35876e-06
3.89026e-13
8.50864e-07
-8.18204e-06
3.39248e-13
-1.08917e-06
-6.56604e-06
3.10332e-13
-3.33374e-06
-3.82965e-06
3.0181e-13
-4.96572e-06
-1.09136e-06
3.24314e-13
-4.62261e-06
3.49936e-13
-1.59797e-06
-1.07692e-06
2.65516e-07
9.75607e-07
-3.14929e-06
4.07681e-07
2.32404e-06
-5.41153e-06
4.42568e-07
2.63614e-06
-7.30356e-06
4.58445e-07
2.11756e-06
-8.35876e-06
4.85704e-07
8.50864e-07
-8.18204e-06
5.22352e-07
-1.08917e-06
-6.56604e-06
5.39495e-07
-3.33374e-06
-3.82965e-06
5.05685e-07
-4.96572e-06
-1.09136e-06
3.90391e-07
-4.62261e-06
1.60794e-07
-1.59797e-06
-1.00412e-06
4.37847e-07
1.03001e-06
-2.93861e-06
6.55763e-07
2.38316e-06
-5.06216e-06
7.07479e-07
2.71698e-06
-6.85609e-06
7.34111e-07
2.26331e-06
-7.87951e-06
7.84386e-07
1.10412e-06
-7.75701e-06
8.55326e-07
-6.96827e-07
-6.26917e-06
8.99017e-07
-2.83033e-06
-3.69631e-06
8.51816e-07
-4.43932e-06
-1.08011e-06
6.52608e-07
-4.22868e-06
2.49031e-07
-1.48174e-06
-8.47388e-07
4.39357e-07
1.09594e-06
-2.4927e-06
6.25629e-07
2.41124e-06
-4.32186e-06
6.66324e-07
2.76972e-06
-5.89837e-06
6.92077e-07
2.44162e-06
-6.83671e-06
7.48179e-07
1.50778e-06
-6.80228e-06
8.31449e-07
2.02376e-08
-5.56781e-06
9.02301e-07
-1.85098e-06
-3.3443e-06
8.71417e-07
-3.35753e-06
-1.0172e-06
6.6005e-07
-3.38476e-06
2.12485e-07
-1.22287e-06
-5.89672e-07
2.47651e-07
1.05303e-06
-1.77126e-06
3.19898e-07
2.16642e-06
-3.11595e-06
3.32845e-07
2.50108e-06
-4.31196e-06
3.45588e-07
2.33637e-06
-5.07015e-06
3.80778e-07
1.74246e-06
-5.11e-06
4.38692e-07
7.14047e-07
-4.24733e-06
4.94062e-07
-6.27359e-07
-2.59546e-06
4.90993e-07
-1.84447e-06
-8.09295e-07
3.65358e-07
-2.10764e-06
7.55889e-08
-8.04677e-07
-2.23466e-07
6.31246e-07
-7.25078e-07
1.16918e-06
-1.31885e-06
1.34498e-06
-1.87515e-06
1.32881e-06
-2.25909e-06
1.14693e-06
-2.32092e-06
7.70836e-07
-1.95e-06
2.17414e-07
-1.18009e-06
-3.6954e-07
-3.32267e-07
-6.40772e-07
-2.74415e-07
-3.35623e-07
-3.82845e-07
1.34972e-06
-1.00933e-06
-5.02066e-07
2.34495e-06
-1.78316e-06
-5.09311e-07
2.62813e-06
-2.52386e-06
-4.87593e-07
2.55709e-06
-3.08836e-06
-4.76187e-07
2.18762e-06
-3.28647e-06
-4.90956e-07
1.4599e-06
-2.92371e-06
-5.18476e-07
3.73132e-07
-1.93725e-06
-5.13042e-07
-8.42959e-07
-6.61795e-07
-3.84022e-07
-1.53221e-06
-3.79787e-08
-8.98231e-07
-9.31116e-07
-6.47826e-07
2.24913e-06
-2.61831e-06
-9.22362e-07
4.27391e-06
-4.47508e-06
-9.4569e-07
4.79423e-06
-6.13441e-06
-8.99738e-07
4.40784e-06
-7.2635e-06
-8.59831e-07
3.25518e-06
-7.50103e-06
-8.49151e-07
1.30978e-06
-6.52629e-06
-8.48002e-07
-1.27257e-06
-4.30541e-06
-8.04405e-07
-3.77399e-06
-1.55004e-06
-6.15156e-07
-4.63188e-06
-1.51666e-07
-2.24103e-06
-1.36703e-06
-6.26726e-07
2.44186e-06
-3.77497e-06
-9.32069e-07
4.82889e-06
-6.35154e-06
-9.61544e-07
5.36214e-06
-8.55779e-06
-9.08785e-07
4.65691e-06
-9.94454e-06
-8.51395e-07
2.88609e-06
-1.0076e-05
-8.09074e-07
1.11647e-07
-8.60947e-06
-7.70656e-07
-3.39488e-06
-5.58494e-06
-7.09838e-07
-6.47662e-06
-1.97608e-06
-5.55097e-07
-7.05368e-06
-1.87281e-07
-3.16333e-06
-1.6376e-06
-3.73437e-07
2.41432e-06
-4.49792e-06
-5.67817e-07
4.87923e-06
-7.50769e-06
-5.87318e-07
5.35252e-06
-1.00124e-05
-5.51981e-07
4.41126e-06
-1.14966e-05
-5.0947e-07
2.24635e-06
-1.14977e-05
-4.7124e-07
-1.03351e-06
-9.69115e-06
-4.34446e-07
-4.97312e-06
-6.19329e-06
-3.93333e-07
-8.25369e-06
-2.14122e-06
-3.1335e-07
-8.5225e-06
-1.2167e-07
-3.68857e-06
-1.7639e-06
1.19521e-12
2.36607e-06
-4.83881e-06
5.49597e-13
4.83114e-06
-8.04916e-06
2.71323e-13
5.25916e-06
-1.06823e-05
2.12963e-13
4.19875e-06
-1.21926e-05
2.6251e-13
1.85167e-06
-1.21115e-05
2.51357e-13
-1.64147e-06
-1.01358e-05
2.40543e-13
-5.74397e-06
-6.42568e-06
2.56803e-13
-9.06914e-06
-2.19259e-06
2.87078e-13
-9.16905e-06
3.20321e-13
-3.91224e-06
-1.7639e-06
3.73439e-07
2.36607e-06
-4.83881e-06
5.67818e-07
4.83114e-06
-8.04916e-06
5.87319e-07
5.25916e-06
-1.06823e-05
5.51982e-07
4.19875e-06
-1.21926e-05
5.09471e-07
1.85167e-06
-1.21115e-05
4.71241e-07
-1.64147e-06
-1.01358e-05
4.34447e-07
-5.74397e-06
-6.42568e-06
3.93334e-07
-9.06914e-06
-2.19259e-06
3.1335e-07
-9.16905e-06
1.21671e-07
-3.91224e-06
-1.6376e-06
6.26728e-07
2.41432e-06
-4.49792e-06
9.3207e-07
4.87923e-06
-7.50769e-06
9.61545e-07
5.35252e-06
-1.00124e-05
9.08785e-07
4.41126e-06
-1.14966e-05
8.51396e-07
2.24635e-06
-1.14977e-05
8.09074e-07
-1.03351e-06
-9.69115e-06
7.70656e-07
-4.97312e-06
-6.19329e-06
7.09838e-07
-8.25369e-06
-2.14122e-06
5.55097e-07
-8.5225e-06
1.87281e-07
-3.68857e-06
-1.36703e-06
6.47827e-07
2.44186e-06
-3.77497e-06
9.22363e-07
4.82889e-06
-6.35154e-06
9.4569e-07
5.36214e-06
-8.55779e-06
8.99738e-07
4.65691e-06
-9.94454e-06
8.59832e-07
2.88609e-06
-1.0076e-05
8.49152e-07
1.11647e-07
-8.60947e-06
8.48003e-07
-3.39488e-06
-5.58494e-06
8.04405e-07
-6.47662e-06
-1.97608e-06
6.15156e-07
-7.05368e-06
1.51667e-07
-3.16334e-06
-9.31117e-07
3.82846e-07
2.24913e-06
-2.61831e-06
5.02066e-07
4.27391e-06
-4.47508e-06
5.09311e-07
4.79423e-06
-6.13441e-06
4.87593e-07
4.40784e-06
-7.2635e-06
4.76187e-07
3.25518e-06
-7.50103e-06
4.90957e-07
1.30978e-06
-6.52629e-06
5.18477e-07
-1.27257e-06
-4.30541e-06
5.13042e-07
-3.77399e-06
-1.55004e-06
3.84022e-07
-4.63188e-06
3.79787e-08
-2.24103e-06
-3.35624e-07
1.34972e-06
-1.00933e-06
2.34495e-06
-1.78316e-06
2.62813e-06
-2.52386e-06
2.55709e-06
-3.08836e-06
2.18762e-06
-3.28647e-06
1.4599e-06
-2.92371e-06
3.73132e-07
-1.93725e-06
-8.42959e-07
-6.61795e-07
-1.53221e-06
-8.98231e-07
-4.26151e-07
-5.09118e-07
2.28499e-06
-1.22603e-06
-6.54669e-07
3.7995e-06
-2.13441e-06
-6.23517e-07
4.16003e-06
-3.05344e-06
-5.22073e-07
3.9982e-06
-3.86977e-06
-4.10536e-07
3.41448e-06
-4.36447e-06
-3.34032e-07
2.28863e-06
-4.20947e-06
-3.13924e-07
5.32051e-07
-3.1171e-06
-3.47863e-07
-1.58746e-06
-1.28406e-06
-3.1262e-07
-3.05263e-06
-4.77675e-09
-2.17751e-06
-1.2167e-06
-8.41809e-07
3.79852e-06
-3.31001e-06
-1.16506e-06
6.87761e-06
-5.58014e-06
-1.10754e-06
7.54839e-06
-7.67625e-06
-8.97571e-07
6.87945e-06
-9.28918e-06
-6.48203e-07
5.10578e-06
-9.99944e-06
-4.37837e-07
2.12384e-06
-9.27507e-06
-3.22906e-07
-1.98796e-06
-6.70788e-06
-3.39472e-07
-6.34957e-06
-2.78893e-06
-3.49872e-07
-8.51357e-06
-6.3806e-08
-4.97093e-06
-1.80584e-06
-8.00143e-07
4.20604e-06
-4.83768e-06
-1.15076e-06
7.84642e-06
-8.01805e-06
-1.09045e-06
8.52542e-06
-1.07899e-05
-8.58912e-07
7.39013e-06
-1.27236e-05
-5.72127e-07
4.74366e-06
-1.33221e-05
-3.07641e-07
5.79959e-07
-1.20541e-05
-1.50245e-07
-4.83553e-06
-8.54456e-06
-1.55584e-07
-1.017e-05
-3.4978e-06
-2.2226e-07
-1.2228e-05
-8.2717e-08
-6.64223e-06
-2.17303e-06
-4.7121e-07
4.25841e-06
-5.79041e-06
-6.9099e-07
8.03685e-06
-9.50366e-06
-6.52575e-07
8.62789e-06
-1.26138e-05
-5.03503e-07
7.16596e-06
-1.46255e-05
-3.15657e-07
4.00166e-06
-1.50511e-05
-1.38744e-07
-7.7683e-07
-1.33945e-05
-2.99443e-08
-6.75007e-06
-9.36531e-06
-3.42544e-08
-1.24042e-05
-3.78183e-06
-9.43543e-08
-1.42339e-05
-5.23305e-08
-7.50078e-06
-2.34354e-06
9.68241e-13
4.2384e-06
-6.23493e-06
3.87606e-13
8.03153e-06
-1.01871e-05
1.22722e-13
8.55871e-06
-1.34298e-05
5.52984e-14
6.93799e-06
-1.54427e-05
9.94873e-14
3.54895e-06
-1.57539e-05
1.21819e-13
-1.46905e-06
-1.39091e-05
1.59132e-13
-7.61867e-06
-9.66464e-06
2.17828e-13
-1.33479e-05
-3.8784e-06
2.4475e-13
-1.50496e-05
2.38383e-13
-7.84297e-06
-2.34354e-06
4.71211e-07
4.2384e-06
-6.23493e-06
6.90991e-07
8.03153e-06
-1.01871e-05
6.52575e-07
8.55871e-06
-1.34298e-05
5.03503e-07
6.93799e-06
-1.54427e-05
3.15657e-07
3.54895e-06
-1.57539e-05
1.38744e-07
-1.46905e-06
-1.39091e-05
2.99447e-08
-7.61867e-06
-9.66464e-06
3.42549e-08
-1.33479e-05
-3.8784e-06
9.43548e-08
-1.50496e-05
5.23309e-08
-7.84297e-06
-2.17303e-06
8.00144e-07
4.25841e-06
-5.79041e-06
1.15076e-06
8.03685e-06
-9.50366e-06
1.09045e-06
8.62789e-06
-1.26138e-05
8.58912e-07
7.16596e-06
-1.46255e-05
5.72128e-07
4.00166e-06
-1.50511e-05
3.07641e-07
-7.7683e-07
-1.33945e-05
1.50245e-07
-6.75007e-06
-9.36531e-06
1.55585e-07
-1.24042e-05
-3.78183e-06
2.2226e-07
-1.42339e-05
8.27173e-08
-7.50078e-06
-1.80584e-06
8.4181e-07
4.20604e-06
-4.83767e-06
1.16506e-06
7.84642e-06
-8.01805e-06
1.10754e-06
8.52542e-06
-1.07899e-05
8.97572e-07
7.39013e-06
-1.27236e-05
6.48204e-07
4.74366e-06
-1.33221e-05
4.37838e-07
5.79959e-07
-1.20541e-05
3.22906e-07
-4.83553e-06
-8.54456e-06
3.39472e-07
-1.017e-05
-3.4978e-06
3.49873e-07
-1.2228e-05
6.38062e-08
-6.64223e-06
-1.2167e-06
5.09118e-07
3.79852e-06
-3.31001e-06
6.5467e-07
6.87761e-06
-5.58014e-06
6.23517e-07
7.54839e-06
-7.67625e-06
5.22073e-07
6.87945e-06
-9.28918e-06
4.10537e-07
5.10578e-06
-9.99944e-06
3.34032e-07
2.12384e-06
-9.27507e-06
3.13924e-07
-1.98796e-06
-6.70788e-06
3.47863e-07
-6.34957e-06
-2.78893e-06
3.1262e-07
-8.51357e-06
4.77664e-09
-4.97093e-06
-4.26151e-07
2.28499e-06
-1.22603e-06
3.7995e-06
-2.13441e-06
4.16003e-06
-3.05345e-06
3.9982e-06
-3.86978e-06
3.41448e-06
-4.36447e-06
2.28863e-06
-4.20947e-06
5.32051e-07
-3.1171e-06
-1.58746e-06
-1.28406e-06
-3.05263e-06
-2.17751e-06
-5.32043e-07
-6.18479e-07
3.43551e-06
-1.40949e-06
-7.60659e-07
5.4376e-06
-2.37767e-06
-6.40218e-07
5.76843e-06
-3.43187e-06
-3.85644e-07
5.43804e-06
-4.54741e-06
-7.70786e-08
4.6071e-06
-5.51953e-06
1.89577e-07
3.07117e-06
-5.85834e-06
3.04099e-07
5.66762e-07
-4.8972e-06
1.85169e-07
-2.73377e-06
-2.42577e-06
-3.08413e-08
-5.49323e-06
1.03021e-09
-4.60431e-06
-1.48574e-06
-1.00267e-06
5.66845e-06
-3.86351e-06
-1.32215e-06
9.81688e-06
-6.38275e-06
-1.09394e-06
1.05213e-05
-8.80294e-06
-5.88507e-07
9.50251e-06
-1.09298e-05
2.64655e-08
7.12911e-06
-1.23563e-05
5.75312e-07
3.1646e-06
-1.23265e-05
8.48249e-07
-2.56191e-06
-9.86994e-06
6.60901e-07
-9.28188e-06
-4.7894e-06
1.87575e-07
-1.38125e-05
-2.23809e-09
-9.75706e-06
-2.18315e-06
-9.38446e-07
6.32497e-06
-5.6472e-06
-1.28181e-06
1.12701e-05
-9.1854e-06
-1.04352e-06
1.20132e-05
-1.2325e-05
-5.06713e-07
1.04479e-05
-1.47582e-05
1.48755e-07
7.05457e-06
-1.60319e-05
7.31854e-07
1.6972e-06
-1.54411e-05
1.01806e-06
-5.59623e-06
-1.20564e-05
8.18461e-07
-1.37122e-05
-5.77133e-06
3.04019e-07
-1.86296e-05
3.40636e-09
-1.24192e-05
-2.60976e-06
-5.46869e-07
6.47659e-06
-6.73579e-06
-7.60053e-07
1.16411e-05
-1.08399e-05
-6.11163e-07
1.22996e-05
-1.42858e-05
-2.74623e-07
1.03797e-05
-1.67188e-05
1.3514e-07
6.4483e-06
-1.77225e-05
4.94889e-07
4.63818e-07
-1.67292e-05
6.6355e-07
-7.38886e-06
-1.28977e-05
5.30718e-07
-1.59479e-05
-6.13919e-06
2.08921e-07
-2.08973e-05
5.90908e-09
-1.36425e-05
-2.80381e-06
7.56669e-13
6.49534e-06
-7.23144e-06
2.91422e-13
1.16991e-05
-1.15757e-05
3.16514e-14
1.22918e-05
-1.51197e-05
-2.11606e-14
1.02074e-05
-1.7499e-05
4.28899e-14
6.06337e-06
-1.83351e-05
1.13119e-13
-1.38076e-07
-1.71608e-05
1.87159e-13
-8.12938e-06
-1.31746e-05
2.56991e-13
-1.68034e-05
-6.26665e-06
2.4988e-13
-2.17486e-05
2.12605e-13
-1.41037e-05
-2.80381e-06
5.4687e-07
6.49534e-06
-7.23144e-06
7.60053e-07
1.16991e-05
-1.15757e-05
6.11163e-07
1.22918e-05
-1.51197e-05
2.74623e-07
1.02074e-05
-1.7499e-05
-1.3514e-07
6.06337e-06
-1.83351e-05
-4.94889e-07
-1.38076e-07
-1.71608e-05
-6.6355e-07
-8.12938e-06
-1.31746e-05
-5.30717e-07
-1.68034e-05
-6.26665e-06
-2.08921e-07
-2.17486e-05
-5.90867e-09
-1.41037e-05
-2.60975e-06
9.38447e-07
6.47659e-06
-6.73579e-06
1.28181e-06
1.16411e-05
-1.08399e-05
1.04352e-06
1.22996e-05
-1.42858e-05
5.06713e-07
1.03797e-05
-1.67188e-05
-1.48754e-07
6.4483e-06
-1.77225e-05
-7.31854e-07
4.63818e-07
-1.67292e-05
-1.01806e-06
-7.38886e-06
-1.28977e-05
-8.18461e-07
-1.59479e-05
-6.13919e-06
-3.04018e-07
-2.08973e-05
-3.40605e-09
-1.36425e-05
-2.18315e-06
1.00267e-06
6.32496e-06
-5.64719e-06
1.32215e-06
1.12701e-05
-9.1854e-06
1.09394e-06
1.20132e-05
-1.2325e-05
5.88507e-07
1.04479e-05
-1.47582e-05
-2.64652e-08
7.05457e-06
-1.60319e-05
-5.75312e-07
1.6972e-06
-1.54411e-05
-8.48248e-07
-5.59623e-06
-1.20564e-05
-6.609e-07
-1.37122e-05
-5.77133e-06
-1.87574e-07
-1.86296e-05
2.23835e-09
-1.24192e-05
-1.48574e-06
6.1848e-07
5.66845e-06
-3.86351e-06
7.6066e-07
9.81688e-06
-6.38275e-06
6.40218e-07
1.05213e-05
-8.80294e-06
3.85644e-07
9.50251e-06
-1.09298e-05
7.70787e-08
7.12911e-06
-1.23563e-05
-1.89577e-07
3.1646e-06
-1.23265e-05
-3.04098e-07
-2.56191e-06
-9.86994e-06
-1.85168e-07
-9.28188e-06
-4.7894e-06
3.08414e-08
-1.38125e-05
-1.0302e-09
-9.75706e-06
-5.32043e-07
3.43551e-06
-1.40949e-06
5.4376e-06
-2.37768e-06
5.76843e-06
-3.43187e-06
5.43804e-06
-4.54741e-06
4.6071e-06
-5.51953e-06
3.07117e-06
-5.85834e-06
5.66762e-07
-4.8972e-06
-2.73377e-06
-2.42577e-06
-5.49323e-06
-4.60431e-06
-7.37251e-07
-7.10853e-07
4.88361e-06
-1.61472e-06
-8.07181e-07
7.12226e-06
-2.47672e-06
-5.31677e-07
7.1621e-06
-3.50953e-06
-3.19886e-08
6.50284e-06
-4.85569e-06
5.72858e-07
5.3804e-06
-6.40978e-06
1.13602e-06
3.48925e-06
-7.56799e-06
1.4252e-06
2.99768e-07
-7.18195e-06
1.1695e-06
-4.2893e-06
-4.25104e-06
4.74382e-07
-8.89851e-06
-6.49296e-08
-8.79042e-06
-1.81432e-06
-1.12331e-06
7.89522e-06
-4.27486e-06
-1.37613e-06
1.28464e-05
-6.68492e-06
-8.79475e-07
1.32792e-05
-9.048e-06
4.74111e-08
1.17862e-05
-1.14131e-05
1.16076e-06
8.90634e-06
-1.35217e-05
2.15687e-06
4.25233e-06
-1.45446e-05
2.61844e-06
-2.73226e-06
-1.29498e-05
2.14552e-06
-1.18527e-05
-7.37798e-06
9.2372e-07
-1.98337e-05
-5.97056e-08
-1.71403e-05
-2.5426e-06
-1.0321e-06
8.77635e-06
-6.11844e-06
-1.31163e-06
1.47815e-05
-9.51266e-06
-8.12252e-07
1.53402e-05
-1.24808e-05
1.29439e-07
1.33341e-05
-1.49689e-05
1.23792e-06
9.46544e-06
-1.67375e-05
2.18688e-06
3.43582e-06
-1.71298e-05
2.55377e-06
-5.13932e-06
-1.47771e-05
2.02324e-06
-1.59426e-05
-8.32977e-06
8.56352e-07
-2.50096e-05
-2.89252e-08
-2.07797e-05
-2.96665e-06
-5.94196e-07
9.00534e-06
-7.19231e-06
-7.68484e-07
1.53236e-05
-1.10894e-05
-4.64327e-07
1.58488e-05
-1.42368e-05
1.09336e-07
1.35472e-05
-1.65555e-05
7.74548e-07
9.23042e-06
-1.79153e-05
1.32383e-06
2.68668e-06
-1.78821e-05
1.50028e-06
-6.36858e-06
-1.52583e-05
1.153e-06
-1.77014e-05
-8.6317e-06
4.76259e-07
-2.71439e-05
-7.45202e-09
-2.22956e-05
-3.15158e-06
5.42323e-13
9.05272e-06
-7.66039e-06
1.51166e-13
1.54394e-05
-1.17523e-05
-8.90954e-14
1.59195e-05
-1.49229e-05
-1.17083e-13
1.34873e-05
-1.70995e-05
-2.40372e-14
9.01451e-06
-1.82439e-05
1.0264e-13
2.33012e-06
-1.8045e-05
2.13503e-13
-6.82796e-06
-1.53768e-05
2.81965e-13
-1.83186e-05
-8.74316e-06
2.42289e-13
-2.79061e-05
1.83098e-13
-2.28543e-05
-3.15158e-06
5.94197e-07
9.05272e-06
-7.66039e-06
7.68484e-07
1.54394e-05
-1.17523e-05
4.64327e-07
1.59195e-05
-1.49229e-05
-1.09337e-07
1.34873e-05
-1.70995e-05
-7.74548e-07
9.01451e-06
-1.82439e-05
-1.32383e-06
2.33012e-06
-1.8045e-05
-1.50028e-06
-6.82796e-06
-1.53768e-05
-1.15299e-06
-1.83186e-05
-8.74316e-06
-4.76258e-07
-2.79061e-05
7.45239e-09
-2.28543e-05
-2.96665e-06
1.0321e-06
9.00533e-06
-7.19231e-06
1.31163e-06
1.53236e-05
-1.10894e-05
8.12252e-07
1.58488e-05
-1.42368e-05
-1.29439e-07
1.35472e-05
-1.65555e-05
-1.23792e-06
9.23042e-06
-1.79153e-05
-2.18688e-06
2.68668e-06
-1.78821e-05
-2.55377e-06
-6.36858e-06
-1.52583e-05
-2.02324e-06
-1.77014e-05
-8.6317e-06
-8.56352e-07
-2.71439e-05
2.89256e-08
-2.22956e-05
-2.5426e-06
1.12331e-06
8.77635e-06
-6.11844e-06
1.37613e-06
1.47815e-05
-9.51266e-06
8.79475e-07
1.53402e-05
-1.24808e-05
-4.7411e-08
1.33341e-05
-1.49689e-05
-1.16076e-06
9.46544e-06
-1.67375e-05
-2.15687e-06
3.43582e-06
-1.71298e-05
-2.61844e-06
-5.13932e-06
-1.47771e-05
-2.14551e-06
-1.59426e-05
-8.32977e-06
-9.2372e-07
-2.50096e-05
5.97059e-08
-2.07797e-05
-1.81432e-06
7.10853e-07
7.89522e-06
-4.27486e-06
8.07181e-07
1.28464e-05
-6.68492e-06
5.31677e-07
1.32792e-05
-9.048e-06
3.19888e-08
1.17862e-05
-1.14131e-05
-5.72858e-07
8.90634e-06
-1.35217e-05
-1.13602e-06
4.25233e-06
-1.45446e-05
-1.4252e-06
-2.73226e-06
-1.29498e-05
-1.1695e-06
-1.18527e-05
-7.37798e-06
-4.74382e-07
-1.98337e-05
6.49297e-08
-1.71403e-05
-7.37251e-07
4.88361e-06
-1.61472e-06
7.12226e-06
-2.47672e-06
7.1621e-06
-3.50953e-06
6.50284e-06
-4.85569e-06
5.3804e-06
-6.40979e-06
3.48925e-06
-7.56799e-06
2.99768e-07
-7.18195e-06
-4.2893e-06
-4.25104e-06
-8.89851e-06
-8.79042e-06
-1.27895e-06
-8.29056e-07
6.99162e-06
-1.96294e-06
-8.42473e-07
8.64872e-06
-2.35771e-06
-3.57425e-07
7.91429e-06
-2.98117e-06
4.37915e-07
6.68839e-06
-4.23239e-06
1.39492e-06
5.23669e-06
-6.21638e-06
2.3388e-06
3.13444e-06
-8.40757e-06
2.90887e-06
-4.17908e-07
-9.19472e-06
2.56056e-06
-6.06271e-06
-6.48114e-06
1.20815e-06
-1.28202e-05
-2.79529e-07
-1.4992e-05
-2.48285e-06
-1.24616e-06
1.07952e-05
-4.62811e-06
-1.39466e-06
1.55438e-05
-6.21724e-06
-5.80476e-07
1.50914e-05
-7.68637e-06
7.85554e-07
1.29077e-05
-9.46075e-06
2.38839e-06
9.68725e-06
-1.16269e-05
3.83071e-06
4.92653e-06
-1.36126e-05
4.50988e-06
-2.34752e-06
-1.36946e-05
3.73694e-06
-1.29471e-05
-9.2882e-06
1.6022e-06
-2.46341e-05
-3.91383e-07
-2.63166e-05
-3.13165e-06
-1.11009e-06
1.17719e-05
-6.27624e-06
-1.29785e-06
1.78292e-05
-8.63524e-06
-5.18664e-07
1.76374e-05
-1.03957e-05
7.9554e-07
1.50845e-05
-1.19012e-05
2.2917e-06
1.10676e-05
-1.33397e-05
3.5367e-06
5.16834e-06
-1.4466e-05
3.96562e-06
-3.46873e-06
-1.40065e-05
3.08894e-06
-1.57542e-05
-9.50436e-06
1.19887e-06
-2.91083e-05
-3.12425e-07
-3.03631e-05
-3.47472e-06
-6.27466e-07
1.19974e-05
-7.15877e-06
-7.49165e-07
1.8459e-05
-9.86926e-06
-2.88583e-07
1.83292e-05
-1.16242e-05
4.87963e-07
1.56097e-05
-1.27589e-05
1.35099e-06
1.13059e-05
-1.36215e-05
2.0299e-06
5.05606e-06
-1.42729e-05
2.20111e-06
-3.95271e-06
-1.37349e-05
1.64074e-06
-1.67912e-05
-9.48552e-06
5.95275e-07
-3.07897e-05
-1.5648e-07
-3.19371e-05
-3.613e-06
3.74244e-13
1.20383e-05
-7.51598e-06
3.74664e-14
1.85933e-05
-1.03436e-05
-1.7103e-13
1.84584e-05
-1.20394e-05
-1.70906e-13
1.56711e-05
-1.296e-05
-3.76626e-14
1.12861e-05
-1.35639e-05
1.27216e-13
4.96384e-06
-1.40704e-05
2.41442e-13
-4.12034e-06
-1.35992e-05
2.92061e-13
-1.71491e-05
-9.50957e-06
2.45092e-13
-3.14004e-05
1.87564e-13
-3.25204e-05
-3.613e-06
6.27467e-07
1.20383e-05
-7.51598e-06
7.49165e-07
1.85933e-05
-1.03436e-05
2.88582e-07
1.84584e-05
-1.20394e-05
-4.87963e-07
1.56711e-05
-1.296e-05
-1.35099e-06
1.12861e-05
-1.35639e-05
-2.0299e-06
4.96384e-06
-1.40704e-05
-2.20111e-06
-4.12034e-06
-1.35992e-05
-1.64074e-06
-1.71491e-05
-9.50957e-06
-5.95274e-07
-3.14004e-05
1.5648e-07
-3.25204e-05
-3.47472e-06
1.11009e-06
1.19974e-05
-7.15877e-06
1.29785e-06
1.8459e-05
-9.86926e-06
5.18664e-07
1.83292e-05
-1.16242e-05
-7.9554e-07
1.56097e-05
-1.27589e-05
-2.2917e-06
1.13059e-05
-1.36215e-05
-3.5367e-06
5.05606e-06
-1.42729e-05
-3.96562e-06
-3.95271e-06
-1.37349e-05
-3.08894e-06
-1.67912e-05
-9.48552e-06
-1.19886e-06
-3.07897e-05
3.12425e-07
-3.19371e-05
-3.13165e-06
1.24616e-06
1.17719e-05
-6.27624e-06
1.39466e-06
1.78292e-05
-8.63524e-06
5.80476e-07
1.76374e-05
-1.03957e-05
-7.85554e-07
1.50845e-05
-1.19012e-05
-2.38839e-06
1.10676e-05
-1.33397e-05
-3.83071e-06
5.16834e-06
-1.4466e-05
-4.50988e-06
-3.46873e-06
-1.40065e-05
-3.73694e-06
-1.57542e-05
-9.50436e-06
-1.6022e-06
-2.91083e-05
3.91383e-07
-3.03631e-05
-2.48285e-06
8.29057e-07
1.07952e-05
-4.62811e-06
8.42473e-07
1.55438e-05
-6.21724e-06
3.57425e-07
1.50914e-05
-7.68638e-06
-4.37915e-07
1.29077e-05
-9.46075e-06
-1.39492e-06
9.68725e-06
-1.16269e-05
-2.3388e-06
4.92653e-06
-1.36126e-05
-2.90887e-06
-2.34752e-06
-1.36946e-05
-2.56056e-06
-1.29471e-05
-9.2882e-06
-1.20815e-06
-2.46341e-05
2.79529e-07
-2.63166e-05
-1.27895e-06
6.99162e-06
-1.96294e-06
8.64872e-06
-2.35771e-06
7.91429e-06
-2.98117e-06
6.68839e-06
-4.23239e-06
5.23669e-06
-6.21638e-06
3.13444e-06
-8.40757e-06
-4.17908e-07
-9.19472e-06
-6.06271e-06
-6.48114e-06
-1.28202e-05
-1.4992e-05
-2.52015e-06
-1.09344e-06
1.06052e-05
-2.35688e-06
-1.08065e-06
9.5661e-06
-1.45735e-06
-4.17878e-07
7.43264e-06
-8.97071e-07
6.14456e-07
5.51366e-06
-1.34053e-06
1.83528e-06
3.84486e-06
-3.14364e-06
3.08693e-06
1.85062e-06
-6.16869e-06
4.00507e-06
-1.39792e-06
-8.67831e-06
3.70078e-06
-7.25387e-06
-7.66277e-06
1.66656e-06
-1.55024e-05
-9.75978e-07
-2.16788e-05
-4.14172e-06
-1.5233e-06
1.53667e-05
-4.94921e-06
-1.66007e-06
1.69307e-05
-4.24143e-06
-6.53205e-07
1.46189e-05
-3.29113e-06
9.4037e-07
1.16315e-05
-2.97979e-06
2.78626e-06
8.42493e-06
-3.8314e-06
4.49836e-06
4.36671e-06
-5.92641e-06
5.47953e-06
-1.72697e-06
-8.17064e-06
4.65103e-06
-1.16531e-05
-7.49333e-06
1.70548e-06
-2.53504e-05
-1.322e-06
-3.34639e-05
-4.77947e-06
-1.28311e-06
1.63112e-05
-6.32004e-06
-1.46707e-06
1.91768e-05
-5.97074e-06
-5.59573e-07
1.71945e-05
-4.83159e-06
8.78979e-07
1.40068e-05
-3.7431e-06
2.48369e-06
1.02817e-05
-3.37405e-06
3.85845e-06
5.4392e-06
-4.19173e-06
4.46183e-06
-1.63336e-06
-5.98943e-06
3.52297e-06
-1.28284e-05
-6.10217e-06
1.10414e-06
-2.83943e-05
-9.66351e-07
-3.68209e-05
-5.03711e-06
-7.01307e-07
1.64527e-05
-6.94014e-06
-8.21027e-07
1.9716e-05
-6.74942e-06
-3.02484e-07
1.78814e-05
-5.44988e-06
5.16531e-07
1.46726e-05
-3.88419e-06
1.40708e-06
1.08168e-05
-2.85674e-06
2.12816e-06
5.75891e-06
-3.12128e-06
2.37887e-06
-1.60521e-06
-4.9314e-06
1.79255e-06
-1.32506e-05
-5.62153e-06
5.14485e-07
-2.95099e-05
-4.57624e-07
-3.80674e-05
-5.1201e-06
2.55106e-13
1.64571e-05
-7.15105e-06
-1.10325e-14
1.98032e-05
-6.99735e-06
-1.80689e-13
1.80023e-05
-5.60174e-06
-1.86885e-13
1.47921e-05
-3.82537e-06
-6.93912e-14
1.09168e-05
-2.55742e-06
7.68488e-14
5.82405e-06
-2.68532e-06
1.83919e-13
-1.61357e-06
-4.61416e-06
2.39396e-13
-1.34277e-05
-5.55795e-06
2.18876e-13
-2.99421e-05
1.81951e-13
-3.8536e-05
-5.1201e-06
7.01308e-07
1.64571e-05
-7.15105e-06
8.21027e-07
1.98032e-05
-6.99735e-06
3.02484e-07
1.80023e-05
-5.60174e-06
-5.16531e-07
1.47921e-05
-3.82537e-06
-1.40708e-06
1.09168e-05
-2.55742e-06
-2.12816e-06
5.82405e-06
-2.68532e-06
-2.37887e-06
-1.61357e-06
-4.61416e-06
-1.79255e-06
-1.34277e-05
-5.55795e-06
-5.14484e-07
-2.99421e-05
4.57624e-07
-3.8536e-05
-5.03711e-06
1.28312e-06
1.64527e-05
-6.94014e-06
1.46707e-06
1.9716e-05
-6.74942e-06
5.59572e-07
1.78814e-05
-5.44988e-06
-8.78979e-07
1.46726e-05
-3.88419e-06
-2.48369e-06
1.08168e-05
-2.85674e-06
-3.85845e-06
5.75891e-06
-3.12128e-06
-4.46183e-06
-1.60521e-06
-4.9314e-06
-3.52297e-06
-1.32506e-05
-5.62153e-06
-1.10414e-06
-2.95099e-05
9.66352e-07
-3.80674e-05
-4.77947e-06
1.5233e-06
1.63112e-05
-6.32004e-06
1.66007e-06
1.91768e-05
-5.97075e-06
6.53205e-07
1.71945e-05
-4.83159e-06
-9.4037e-07
1.40068e-05
-3.7431e-06
-2.78626e-06
1.02817e-05
-3.37405e-06
-4.49836e-06
5.4392e-06
-4.19173e-06
-5.47953e-06
-1.63336e-06
-5.98943e-06
-4.65103e-06
-1.28284e-05
-6.10217e-06
-1.70548e-06
-2.83943e-05
1.322e-06
-3.68209e-05
-4.14172e-06
1.09344e-06
1.53667e-05
-4.94921e-06
1.08065e-06
1.69307e-05
-4.24143e-06
4.17878e-07
1.46189e-05
-3.29113e-06
-6.14456e-07
1.16315e-05
-2.97979e-06
-1.83528e-06
8.42493e-06
-3.8314e-06
-3.08693e-06
4.36671e-06
-5.92641e-06
-4.00507e-06
-1.72697e-06
-8.17064e-06
-3.70078e-06
-1.16531e-05
-7.49333e-06
-1.66656e-06
-2.53504e-05
9.75978e-07
-3.34639e-05
-2.52015e-06
1.06052e-05
-2.35689e-06
9.5661e-06
-1.45735e-06
7.43264e-06
-8.97071e-07
5.51366e-06
-1.34053e-06
3.84486e-06
-3.14364e-06
1.85062e-06
-6.16869e-06
-1.39792e-06
-8.67831e-06
-7.25387e-06
-7.66277e-06
-1.55024e-05
-2.16788e-05
-2.69598e-06
-1.85199e-06
1.51532e-05
4.22381e-07
-1.95336e-06
8.4011e-06
4.41328e-06
-1.18249e-06
4.62423e-06
7.26594e-06
-1.48161e-07
2.80916e-06
8.48093e-06
1.0791e-06
1.55078e-06
7.59909e-06
2.37199e-06
3.60472e-07
4.32176e-06
3.56449e-06
-1.68508e-06
-6.27703e-07
3.49236e-06
-5.79676e-06
-3.47671e-06
9.68404e-07
-1.36218e-05
-2.67718e-06
-2.24784e-05
-4.83459e-06
-2.21309e-06
2.05624e-05
-9.34804e-07
-2.63907e-06
1.37167e-05
4.88884e-06
-1.75963e-06
9.37241e-06
1.00017e-05
-3.26335e-07
6.69682e-06
1.36953e-05
1.3314e-06
4.47895e-06
1.52625e-05
2.99288e-06
2.17868e-06
1.38621e-05
4.30346e-06
-1.06556e-06
9.18875e-06
3.91219e-06
-7.39956e-06
3.03747e-06
7.8071e-07
-1.90114e-05
-2.70221e-06
-3.04014e-05
-5.6102e-06
-1.68442e-06
2.13927e-05
-1.92868e-06
-2.1424e-06
1.49986e-05
4.03818e-06
-1.45437e-06
1.09223e-05
9.81797e-06
-2.89483e-07
8.19013e-06
1.46402e-05
1.0542e-06
5.7367e-06
1.76839e-05
2.3359e-06
3.05248e-06
1.76742e-05
3.23181e-06
-5.5202e-07
1.35298e-05
2.82162e-06
-7.59346e-06
5.63101e-06
5.13741e-07
-2.02285e-05
-1.68091e-06
-3.22112e-05
-5.8024e-06
-8.71008e-07
2.14417e-05
-2.26856e-06
-1.14092e-06
1.51807e-05
3.68701e-06
-7.71725e-07
1.12432e-05
9.66441e-06
-1.49001e-07
8.55474e-06
1.48923e-05
5.65071e-07
6.07798e-06
1.8462e-05
1.2255e-06
3.2997e-06