/*--------------------------------*- C++ -*----------------------------------*\
  =========                 |
  \\      /  F ield         | OpenFOAM: The Open Source CFD Toolbox
   \\    /   O peration     | Website:  https://openfoam.org
    \\  /    A nd           | Version:  9
     \\/     M anipulation  |
\*---------------------------------------------------------------------------*/
FoamFile
{
    format      ascii;
    class       volVectorField;
    location    "0.49";
    object      U;
}
// * * * * * * * * * * * * * * * * * * * * * * * * * * * * * * * * * * * * * //

dimensions      [0 1 -1 0 0 0 0];

internalField   nonuniform List<vector> 
1000
(
(-2.84448e-05 -0.000448491 0.000352659)
(-0.00153997 -0.00038751 0.00105569)
(-0.00470879 -0.000340817 0.00136416)
(-0.00800488 -0.00044358 0.00146761)
(-0.0107745 -0.000728538 0.00139742)
(-0.012145 -0.00116093 0.00107615)
(-0.0112432 -0.00159773 0.000489349)
(-0.00779854 -0.00177228 -0.000153591)
(-0.00267043 -0.00142394 -0.000337287)
(6.48483e-05 -0.000422125 0.000279213)
(-0.000234526 -0.00154272 0.000598097)
(-0.00354385 -0.00182681 0.00219942)
(-0.0100565 -0.00187918 0.00285948)
(-0.0166444 -0.00219171 0.00289303)
(-0.0219389 -0.00289852 0.00239499)
(-0.0243181 -0.00391031 0.0012761)
(-0.0222412 -0.00486077 -0.000357453)
(-0.0153361 -0.00510524 -0.00183009)
(-0.00546151 -0.0040803 -0.00186802)
(-8.27872e-05 -0.00149917 0.000110327)
(-0.00040454 -0.00225727 0.000332839)
(-0.00490112 -0.00309975 0.00226736)
(-0.0135063 -0.00335716 0.00305705)
(-0.0220699 -0.00377507 0.00296857)
(-0.0287762 -0.00457097 0.00209749)
(-0.0315441 -0.00564297 0.000365618)
(-0.0284407 -0.00652594 -0.00200012)
(-0.0191412 -0.00656767 -0.00386709)
(-0.00631757 -0.00523474 -0.00343871)
(0.000223663 -0.00222223 -0.00015745)
(-0.000505431 -0.00188337 -1.45649e-05)
(-0.00573764 -0.00271906 0.00197871)
(-0.0156391 -0.00298841 0.0027956)
(-0.0254067 -0.00332274 0.00261134)
(-0.0329344 -0.00390846 0.00149329)
(-0.0357982 -0.00466597 -0.000630647)
(-0.0318558 -0.00522191 -0.00342627)
(-0.0209476 -0.00514655 -0.00543743)
(-0.00632909 -0.00410143 -0.00454978)
(0.000638824 -0.00185041 -0.000334237)
(-0.000553127 -0.000721516 -0.000226074)
(-0.00613815 -0.00106181 0.00175721)
(-0.0166612 -0.00117309 0.00257465)
(-0.0270004 -0.00129756 0.0023417)
(-0.0349006 -0.00150629 0.00110308)
(-0.0377711 -0.00176887 -0.00121228)
(-0.0333706 -0.00195587 -0.00419104)
(-0.021648 -0.00191114 -0.00623464)
(-0.00618588 -0.00152447 -0.0050857)
(0.00089943 -0.000706312 -0.000412282)
(-0.000553127 0.000721554 -0.000226075)
(-0.00613815 0.00106184 0.00175721)
(-0.0166612 0.00117311 0.00257465)
(-0.0270004 0.00129757 0.0023417)
(-0.0349006 0.00150631 0.00110308)
(-0.0377711 0.00176887 -0.00121228)
(-0.0333706 0.00195588 -0.00419104)
(-0.021648 0.00191114 -0.00623464)
(-0.00618588 0.00152447 -0.0050857)
(0.00089943 0.000706316 -0.000412281)
(-0.000505431 0.00188342 -1.45635e-05)
(-0.00573765 0.00271909 0.00197871)
(-0.0156391 0.00298843 0.0027956)
(-0.0254067 0.00332275 0.00261134)
(-0.0329344 0.00390847 0.00149329)
(-0.0357982 0.00466598 -0.000630648)
(-0.0318558 0.00522191 -0.00342627)
(-0.0209476 0.00514655 -0.00543743)
(-0.00632909 0.00410143 -0.00454978)
(0.000638823 0.00185041 -0.000334235)
(-0.000404539 0.00225732 0.000332842)
(-0.00490113 0.00309978 0.00226736)
(-0.0135063 0.00335719 0.00305705)
(-0.0220699 0.00377508 0.00296857)
(-0.0287762 0.00457098 0.00209749)
(-0.0315441 0.00564298 0.000365617)
(-0.0284407 0.00652594 -0.00200012)
(-0.0191412 0.00656767 -0.00386709)
(-0.00631757 0.00523474 -0.00343871)
(0.000223663 0.00222223 -0.000157448)
(-0.000234523 0.00154278 0.000598101)
(-0.00354387 0.00182683 0.00219943)
(-0.0100565 0.0018792 0.00285948)
(-0.0166444 0.00219172 0.00289304)
(-0.0219389 0.00289853 0.00239499)
(-0.0243182 0.00391032 0.0012761)
(-0.0222412 0.00486077 -0.000357453)
(-0.0153361 0.00510524 -0.00183009)
(-0.00546151 0.0040803 -0.00186802)
(-8.27883e-05 0.00149917 0.000110329)
(-2.84624e-05 0.000448514 0.000352642)
(-0.00154002 0.000387513 0.00105569)
(-0.00470884 0.000340822 0.00136416)
(-0.00800491 0.000443584 0.0014676)
(-0.0107746 0.000728542 0.00139742)
(-0.012145 0.00116094 0.00107615)
(-0.0112433 0.00159773 0.000489348)
(-0.00779854 0.00177228 -0.000153591)
(-0.00267043 0.00142394 -0.000337286)
(6.48472e-05 0.000422126 0.000279215)
(-0.000663715 -0.00128294 0.00329777)
(-0.00419042 -0.00159566 0.00655122)
(-0.0101866 -0.00162426 0.00772714)
(-0.0162307 -0.00168192 0.00778667)
(-0.0212191 -0.00187971 0.00687357)
(-0.0237228 -0.00222542 0.00477543)
(-0.0222912 -0.00258051 0.00157479)
(-0.0162614 -0.00261392 -0.0017452)
(-0.0067652 -0.00192163 -0.00308588)
(-0.000703905 -0.000263433 -0.000762317)
(-0.00196066 -0.00369355 0.00546453)
(-0.0106132 -0.00506655 0.0123486)
(-0.024456 -0.00533131 0.0146757)
(-0.037891 -0.00554116 0.0140043)
(-0.0482979 -0.0060606 0.0107365)
(-0.0528169 -0.00687621 0.00475071)
(-0.0488409 -0.0076223 -0.00317629)
(-0.0354669 -0.007467 -0.0101613)
(-0.0154684 -0.00558684 -0.0111615)
(-0.00217561 -0.00146474 -0.00315878)
(-0.00289143 -0.00478568 0.00532637)
(-0.0151173 -0.00709113 0.0135022)
(-0.0342107 -0.0076299 0.0161062)
(-0.052258 -0.00792592 0.014565)
(-0.0656623 -0.00850606 0.00930388)
(-0.0707986 -0.00933276 0.000369867)
(-0.0645279 -0.00992697 -0.0106823)
(-0.04609 -0.00946534 -0.0193786)
(-0.0196345 -0.00721072 -0.0186584)
(-0.00255819 -0.00258576 -0.00529045)
(-0.0034411 -0.00379415 0.00460069)
(-0.0178896 -0.00582816 0.0130076)
(-0.040248 -0.00632838 0.0155415)
(-0.0610367 -0.00656064 0.0133184)
(-0.0760539 -0.0069632 0.00670307)
(-0.0811988 -0.00750308 -0.00408987)
(-0.0731285 -0.00777403 -0.0169393)
(-0.0514411 -0.00730177 -0.026252)
(-0.0212412 -0.00562242 -0.0238246)
(-0.00242179 -0.00225558 -0.00666713)
(-0.00368845 -0.00142293 0.00409333)
(-0.0191907 -0.00221807 0.0124614)
(-0.0431079 -0.00241676 0.0149008)
(-0.0651703 -0.00250067 0.0123211)
(-0.0808812 -0.00263651 0.00503925)
(-0.0859106 -0.00281244 -0.00662578)
(-0.0768689 -0.00287936 -0.0202372)
(-0.0536049 -0.00268647 -0.0296897)
(-0.0217196 -0.00208125 -0.0263003)
(-0.00225377 -0.000875351 -0.00729827)
(-0.00368845 0.00142296 0.00409333)
(-0.0191907 0.00221808 0.0124614)
(-0.0431079 0.00241677 0.0149008)
(-0.0651703 0.00250068 0.0123211)
(-0.0808812 0.00263652 0.00503925)
(-0.0859106 0.00281245 -0.00662578)
(-0.0768689 0.00287937 -0.0202372)
(-0.0536049 0.00268648 -0.0296897)
(-0.0217196 0.00208126 -0.0263003)
(-0.00225377 0.000875358 -0.00729827)
(-0.0034411 0.00379419 0.00460069)
(-0.0178896 0.00582817 0.0130076)
(-0.040248 0.00632839 0.0155415)
(-0.0610367 0.00656064 0.0133184)
(-0.0760539 0.0069632 0.00670307)
(-0.0811988 0.00750309 -0.00408987)
(-0.0731285 0.00777404 -0.0169393)
(-0.0514411 0.00730178 -0.026252)
(-0.0212412 0.00562243 -0.0238246)
(-0.00242179 0.00225558 -0.00666712)
(-0.00289143 0.00478571 0.00532637)
(-0.0151173 0.00709114 0.0135022)
(-0.0342107 0.00762991 0.0161062)
(-0.052258 0.00792593 0.014565)
(-0.0656623 0.00850607 0.00930388)
(-0.0707986 0.00933277 0.000369867)
(-0.0645279 0.00992698 -0.0106823)
(-0.04609 0.00946535 -0.0193786)
(-0.0196345 0.00721072 -0.0186584)
(-0.00255819 0.00258577 -0.00529045)
(-0.00196065 0.00369357 0.00546451)
(-0.0106132 0.00506656 0.0123486)
(-0.024456 0.00533131 0.0146757)
(-0.037891 0.00554116 0.0140043)
(-0.048298 0.00606061 0.0107365)
(-0.0528169 0.00687621 0.00475071)
(-0.0488409 0.0076223 -0.00317629)
(-0.0354669 0.007467 -0.0101613)
(-0.0154684 0.00558684 -0.0111615)
(-0.00217561 0.00146474 -0.00315878)
(-0.000663715 0.00128294 0.00329772)
(-0.00419044 0.00159566 0.0065512)
(-0.0101866 0.00162426 0.00772713)
(-0.0162308 0.00168193 0.00778667)
(-0.0212191 0.00187971 0.00687357)
(-0.0237228 0.00222542 0.00477543)
(-0.0222912 0.00258051 0.00157479)
(-0.0162615 0.00261392 -0.0017452)
(-0.0067652 0.00192163 -0.00308588)
(-0.000703905 0.000263434 -0.000762315)
(-0.00112978 -0.00202302 0.00952162)
(-0.00606523 -0.00261731 0.0169628)
(-0.0139296 -0.0026303 0.0192626)
(-0.0218318 -0.00252175 0.0188968)
(-0.028701 -0.00249315 0.0162426)
(-0.03291 -0.00264246 0.0108959)
(-0.0323907 -0.00288895 0.00299966)
(-0.025435 -0.00291817 -0.00542709)
(-0.0123296 -0.00214595 -0.00970286)
(-0.00216382 -3.44793e-05 -0.00492087)
(-0.00339952 -0.00557625 0.015793)
(-0.0162678 -0.0077282 0.0310165)
(-0.0355626 -0.00788439 0.0353079)
(-0.054031 -0.00753871 0.0327416)
(-0.0687535 -0.00731415 0.0243029)
(-0.0763316 -0.00742322 0.00988189)
(-0.0731033 -0.00765281 -0.0089098)
(-0.056483 -0.00739737 -0.0261945)
(-0.0279388 -0.00554902 -0.0307424)
(-0.00536969 -0.000914817 -0.0131745)
(-0.00508078 -0.00694006 0.0168152)
(-0.0237213 -0.0102292 0.0347641)
(-0.0509756 -0.010549 0.0392681)
(-0.0761676 -0.0100066 0.0343624)
(-0.0951333 -0.00945444 0.0211991)
(-0.103543 -0.00911996 0.000173168)
(-0.0972643 -0.00883673 -0.0254411)
(-0.0737995 -0.00821516 -0.0468015)
(-0.0358598 -0.00635937 -0.0484306)
(-0.0066177 -0.00193083 -0.0193658)
(-0.00610622 -0.00536929 0.0162576)
(-0.0283855 -0.00816623 0.0347449)
(-0.0605985 -0.00845325 0.0388471)
(-0.0896923 -0.00795546 0.0321552)
(-0.11073 -0.00736016 0.0158539)
(-0.11895 -0.00683629 -0.00915159)
(-0.110184 -0.00634042 -0.0384279)
(-0.0823971 -0.00576301 -0.0612223)
(-0.0392614 -0.00457455 -0.0598754)
(-0.0068736 -0.00170129 -0.0231212)
(-0.00657509 -0.00198952 0.0156984)
(-0.0305792 -0.00306538 0.0341459)
(-0.0651401 -0.00317626 0.0379218)
(-0.0959957 -0.00297431 0.0303077)
(-0.117836 -0.0027189 0.0125001)
(-0.125736 -0.00247425 -0.0142831)
(-0.115621 -0.00224157 -0.0450181)
(-0.0858033 -0.00201681 -0.0681349)
(-0.0404444 -0.00162613 -0.0651413)
(-0.0068624 -0.000659741 -0.0247872)
(-0.00657509 0.00198954 0.0156984)
(-0.0305792 0.00306539 0.0341459)
(-0.0651401 0.00317627 0.0379218)
(-0.0959957 0.00297431 0.0303077)
(-0.117836 0.00271891 0.0125001)
(-0.125736 0.00247426 -0.0142831)
(-0.115621 0.00224158 -0.0450181)
(-0.0858033 0.00201682 -0.0681349)
(-0.0404444 0.00162613 -0.0651413)
(-0.0068624 0.000659747 -0.0247872)
(-0.00610622 0.00536931 0.0162576)
(-0.0283855 0.00816624 0.0347449)
(-0.0605985 0.00845325 0.0388471)
(-0.0896923 0.00795546 0.0321553)
(-0.11073 0.00736016 0.0158539)
(-0.11895 0.0068363 -0.00915159)
(-0.110184 0.00634042 -0.0384279)
(-0.0823971 0.00576302 -0.0612223)
(-0.0392614 0.00457456 -0.0598754)
(-0.0068736 0.0017013 -0.0231212)
(-0.00508078 0.00694008 0.0168152)
(-0.0237213 0.0102292 0.0347641)
(-0.0509756 0.010549 0.0392681)
(-0.0761676 0.0100066 0.0343624)
(-0.0951333 0.00945445 0.0211991)
(-0.103543 0.00911996 0.000173169)
(-0.0972643 0.00883674 -0.0254411)
(-0.0737995 0.00821516 -0.0468015)
(-0.0358598 0.00635937 -0.0484306)
(-0.0066177 0.00193084 -0.0193658)
(-0.00339952 0.00557626 0.015793)
(-0.0162677 0.00772821 0.0310165)
(-0.0355626 0.00788439 0.0353079)
(-0.054031 0.00753872 0.0327416)
(-0.0687535 0.00731416 0.0243029)
(-0.0763316 0.00742322 0.00988189)
(-0.0731033 0.00765282 -0.0089098)
(-0.056483 0.00739737 -0.0261945)
(-0.0279388 0.00554902 -0.0307424)
(-0.00536969 0.000914818 -0.0131745)
(-0.00112978 0.00202302 0.00952157)
(-0.00606524 0.00261731 0.0169627)
(-0.0139296 0.0026303 0.0192626)
(-0.0218318 0.00252175 0.0188968)
(-0.028701 0.00249315 0.0162426)
(-0.03291 0.00264246 0.0108959)
(-0.0323907 0.00288895 0.00299966)
(-0.025435 0.00291817 -0.00542709)
(-0.0123296 0.00214595 -0.00970286)
(-0.00216382 3.44797e-05 -0.00492087)
(-0.00153191 -0.00272 0.017842)
(-0.00754069 -0.00348459 0.0302874)
(-0.016737 -0.00331644 0.0335946)
(-0.0261479 -0.00282067 0.032525)
(-0.0351675 -0.00231014 0.0278262)
(-0.0422682 -0.00203197 0.0186654)
(-0.0446214 -0.00210345 0.00473683)
(-0.0385742 -0.00238657 -0.0112601)
(-0.022093 -0.00202656 -0.0211918)
(-0.00537383 0.000110294 -0.0136908)
(-0.0046424 -0.00733524 0.0296411)
(-0.0209541 -0.00993845 0.0548981)
(-0.0445594 -0.00947316 0.0609595)
(-0.0672511 -0.00784137 0.0558162)
(-0.0866072 -0.00598126 0.0412899)
(-0.0992382 -0.00454048 0.0168596)
(-0.100218 -0.00390619 -0.0159429)
(-0.0837722 -0.00416715 -0.0487379)
(-0.0476105 -0.00384702 -0.0619732)
(-0.0115438 -0.000279907 -0.0325957)
(-0.00697025 -0.00892509 0.0325313)
(-0.0309446 -0.0127424 0.0623186)
(-0.0647701 -0.0121133 0.0684513)
(-0.0958403 -0.0096609 0.0593137)
(-0.120393 -0.00665606 0.0371913)
(-0.134117 -0.00394976 0.00238562)
(-0.131742 -0.00233355 -0.0414137)
(-0.107515 -0.00238705 -0.0817455)
(-0.0600758 -0.00291131 -0.0923666)
(-0.0141396 -0.00085637 -0.0449186)
(-0.00840158 -0.00679683 0.0325928)
(-0.0372112 -0.00996948 0.0634106)
(-0.0773313 -0.00943093 0.068762)
(-0.113033 -0.00730345 0.0567088)
(-0.139729 -0.00462021 0.0298249)
(-0.152867 -0.0020972 -0.0107388)
(-0.147458 -0.000567629 -0.0597286)
(-0.118425 -0.000633914 -0.102595)
(-0.0653384 -0.0014718 -0.110094)
(-0.015013 -0.00072734 -0.0516956)
(-0.00905578 -0.00249745 0.0322191)
(-0.0401393 -0.00370379 0.063087)
(-0.0831856 -0.00349177 0.0678663)
(-0.120874 -0.00265996 0.0543555)
(-0.148235 -0.0016027 0.0253044)
(-0.160703 -0.000601886 -0.0176254)
(-0.153633 5.7604e-06 -0.0684427)
(-0.122468 -3.53138e-05 -0.111878)
(-0.067196 -0.000418824 -0.117675)
(-0.0152641 -0.00027479 -0.0545105)
(-0.00905578 0.00249747 0.0322191)
(-0.0401393 0.0037038 0.063087)
(-0.0831856 0.00349177 0.0678663)
(-0.120874 0.00265996 0.0543555)
(-0.148235 0.0016027 0.0253044)
(-0.160703 0.000601888 -0.0176254)
(-0.153633 -5.75727e-06 -0.0684427)
(-0.122468 3.53179e-05 -0.111878)
(-0.067196 0.000418828 -0.117675)
(-0.0152641 0.000274795 -0.0545105)
(-0.00840158 0.00679685 0.0325928)
(-0.0372112 0.00996948 0.0634106)
(-0.0773313 0.00943093 0.068762)
(-0.113033 0.00730345 0.0567088)
(-0.139729 0.00462021 0.0298249)
(-0.152867 0.0020972 -0.0107387)
(-0.147458 0.000567633 -0.0597286)
(-0.118425 0.000633918 -0.102595)
(-0.0653384 0.0014718 -0.110094)
(-0.015013 0.000727344 -0.0516956)
(-0.00697025 0.0089251 0.0325313)
(-0.0309446 0.0127424 0.0623186)
(-0.0647701 0.0121133 0.0684513)
(-0.0958403 0.0096609 0.0593137)
(-0.120393 0.00665607 0.0371913)
(-0.134117 0.00394976 0.00238562)
(-0.131742 0.00233356 -0.0414137)
(-0.107515 0.00238705 -0.0817455)
(-0.0600758 0.00291131 -0.0923666)
(-0.0141396 0.000856373 -0.0449186)
(-0.0046424 0.00733524 0.029641)
(-0.0209541 0.00993845 0.054898)
(-0.0445594 0.00947316 0.0609595)
(-0.0672511 0.00784137 0.0558162)
(-0.0866072 0.00598127 0.0412899)
(-0.0992382 0.00454048 0.0168596)
(-0.100218 0.0039062 -0.0159429)
(-0.0837722 0.00416715 -0.0487379)
(-0.0476105 0.00384703 -0.0619732)
(-0.0115438 0.000279908 -0.0325957)
(-0.00153191 0.00272 0.017842)
(-0.00754069 0.00348459 0.0302874)
(-0.0167371 0.00331644 0.0335946)
(-0.0261479 0.00282068 0.032525)
(-0.0351675 0.00231014 0.0278262)
(-0.0422682 0.00203197 0.0186654)
(-0.0446214 0.00210345 0.00473682)
(-0.0385742 0.00238658 -0.0112601)
(-0.022093 0.00202656 -0.0211918)
(-0.00537383 -0.000110294 -0.0136908)
(-0.00213049 -0.00333426 0.0282552)
(-0.00905949 -0.00410693 0.0459429)
(-0.0188371 -0.00348404 0.0496652)
(-0.0290394 -0.00220674 0.0473939)
(-0.0401295 -0.000729761 0.0403822)
(-0.0512558 0.000473677 0.0270709)
(-0.05895 0.000865873 0.00592143)
(-0.056755 8.92397e-05 -0.0205916)
(-0.0385471 -0.000879992 -0.0405505)
(-0.011887 1.49982e-05 -0.0311496)
(-0.00600836 -0.00882836 0.0467873)
(-0.0250871 -0.0114319 0.0829668)
(-0.0513558 -0.00957742 0.090149)
(-0.0766632 -0.00553037 0.0818529)
(-0.100074 -0.000653783 0.0609991)
(-0.11911 0.00366107 0.0260156)
(-0.127855 0.0057626 -0.023145)
(-0.116449 0.00416869 -0.0773783)
(-0.0768217 0.000516931 -0.10822)
(-0.0228522 -2.05321e-05 -0.0683762)
(-0.00879482 -0.010535 0.0520705)
(-0.0368669 -0.0142966 0.0949508)
(-0.0748292 -0.0117321 0.102243)
(-0.109303 -0.00593819 0.0886432)
(-0.138035 0.0011598 0.0579484)
(-0.157823 0.00754134 0.00960643)
(-0.162762 0.0107531 -0.0542916)
(-0.143416 0.00865469 -0.120377)
(-0.09296 0.00304407 -0.151775)
(-0.0271699 4.68827e-07 -0.0894616)
(-0.0104699 -0.00791156 0.0530823)
(-0.0441231 -0.0109943 0.0976916)
(-0.0890809 -0.00886339 0.104004)
(-0.128209 -0.00402479 0.0867804)
(-0.158464 0.00189013 0.0504922)
(-0.176649 0.00712842 -0.00431715)
(-0.177825 0.00958443 -0.0741534)
(-0.153871 0.00764683 -0.144057)
(-0.0990508 0.00295467 -0.174015)
(-0.0287926 7.88408e-05 -0.0998138)
(-0.0112195 -0.00288517 0.0530722)
(-0.0474448 -0.00404734 0.0979238)
(-0.0955507 -0.00322984 0.103526)
(-0.136499 -0.00137733 0.0845719)
(-0.166914 0.000876207 0.0459459)
(-0.183791 0.00284342 -0.0111759)
(-0.18299 0.00371621 -0.0827983)
(-0.157238 0.00292936 -0.153623)
(-0.101126 0.00115801 -0.182724)
(-0.0293826 4.61113e-05 -0.103828)
(-0.0112195 0.00288518 0.0530722)
(-0.0474448 0.00404735 0.0979238)
(-0.0955507 0.00322984 0.103526)
(-0.136499 0.00137733 0.0845719)
(-0.166914 -0.000876206 0.0459459)
(-0.183791 -0.00284342 -0.0111759)
(-0.18299 -0.00371621 -0.0827983)
(-0.157238 -0.00292936 -0.153623)
(-0.101126 -0.001158 -0.182724)
(-0.0293826 -4.61074e-05 -0.103828)
(-0.0104699 0.00791157 0.0530823)
(-0.0441231 0.0109944 0.0976916)
(-0.0890809 0.00886339 0.104004)
(-0.128209 0.00402479 0.0867804)
(-0.158464 -0.00189013 0.0504922)
(-0.176649 -0.00712842 -0.00431714)
(-0.177825 -0.00958442 -0.0741534)
(-0.153871 -0.00764683 -0.144057)
(-0.0990508 -0.00295466 -0.174015)
(-0.0287926 -7.88372e-05 -0.0998138)
(-0.00879482 0.010535 0.0520705)
(-0.0368669 0.0142966 0.0949508)
(-0.0748292 0.0117321 0.102243)
(-0.109303 0.0059382 0.0886432)
(-0.138035 -0.0011598 0.0579484)
(-0.157823 -0.00754133 0.00960643)
(-0.162762 -0.0107531 -0.0542916)
(-0.143416 -0.00865468 -0.120377)
(-0.09296 -0.00304407 -0.151775)
(-0.0271699 -4.65942e-07 -0.0894616)
(-0.00600836 0.00882837 0.0467873)
(-0.0250871 0.0114319 0.0829668)
(-0.0513558 0.00957742 0.090149)
(-0.0766632 0.00553037 0.0818529)
(-0.100074 0.000653785 0.0609991)
(-0.11911 -0.00366107 0.0260156)
(-0.127855 -0.0057626 -0.023145)
(-0.116449 -0.00416869 -0.0773783)
(-0.0768217 -0.000516929 -0.10822)
(-0.0228522 2.05334e-05 -0.0683762)
(-0.00213049 0.00333426 0.0282552)
(-0.00905949 0.00410693 0.0459429)
(-0.0188371 0.00348404 0.0496652)
(-0.0290394 0.00220674 0.0473939)
(-0.0401295 0.000729762 0.0403822)
(-0.0512558 -0.000473676 0.0270709)
(-0.05895 -0.000865873 0.00592143)
(-0.056755 -8.9239e-05 -0.0205916)
(-0.0385471 0.000879992 -0.0405505)
(-0.011887 -1.49984e-05 -0.0311496)
(-0.00351864 -0.00387915 0.0411176)
(-0.0115176 -0.0044222 0.0628188)
(-0.0204138 -0.00296683 0.0652827)
(-0.0296067 -0.000395388 0.0606944)
(-0.041458 0.00271503 0.0509884)
(-0.0566899 0.00562498 0.0336449)
(-0.0719179 0.00715349 0.00505238)
(-0.077686 0.00587898 -0.0344543)
(-0.0620562 0.00235263 -0.0700031)
(-0.0226741 -0.000331483 -0.0630265)
(-0.00818335 -0.0100203 0.0672364)
(-0.0293628 -0.0120314 0.113308)
(-0.0551446 -0.00786523 0.119784)
(-0.0790743 -0.000175074 0.107491)
(-0.102975 0.00914823 0.0808189)
(-0.126684 0.0177483 0.0366763)
(-0.144664 0.0221314 -0.0282792)
(-0.143722 0.0184629 -0.107982)
(-0.10983 0.00790489 -0.167919)
(-0.0385787 -0.000802567 -0.128758)
(-0.0111207 -0.0116759 0.0750144)
(-0.0416531 -0.0147224 0.130269)
(-0.0792586 -0.00923126 0.137395)
(-0.111606 0.00113164 0.11944)
(-0.139289 0.0134862 0.0821967)
(-0.161769 0.0242868 0.023633)
(-0.174332 0.0288619 -0.0580261)
(-0.165406 0.02323 -0.153638)
(-0.124041 0.00988714 -0.220472)
(-0.0433429 -0.000464267 -0.160857)
(-0.012771 -0.00862884 0.0769985)
(-0.0488892 -0.0111439 0.134875)
(-0.0932263 -0.00674938 0.141255)
(-0.12926 0.00156035 0.119787)
(-0.156901 0.0112897 0.077326)
(-0.176065 0.0193728 0.0129533)
(-0.183811 0.0220886 -0.0743659)
(-0.170793 0.0170514 -0.175017)
(-0.128012 0.00702983 -0.243755)
(-0.0451158 -0.000150432 -0.175044)
(-0.0134729 -0.00312017 0.0773685)
(-0.0520729 -0.00406739 0.13577)
(-0.0992872 -0.00241584 0.141522)
(-0.136512 0.000699522 0.118465)
(-0.163433 0.004303 0.074068)
(-0.180503 0.00720565 0.0079874)
(-0.186013 0.00802246 -0.0807427)
(-0.171791 0.00604001 -0.182789)
(-0.129291 0.00244361 -0.252219)
(-0.0458713 -1.57867e-05 -0.180322)
(-0.0134729 0.00312018 0.0773685)
(-0.0520729 0.00406739 0.13577)
(-0.0992872 0.00241584 0.141522)
(-0.136512 -0.000699524 0.118465)
(-0.163433 -0.004303 0.074068)
(-0.180503 -0.00720565 0.0079874)
(-0.186013 -0.00802246 -0.0807427)
(-0.171791 -0.00604 -0.182789)
(-0.129291 -0.00244361 -0.252219)
(-0.0458713 1.57904e-05 -0.180322)
(-0.012771 0.00862885 0.0769985)
(-0.0488892 0.0111439 0.134875)
(-0.0932263 0.00674938 0.141255)
(-0.12926 -0.00156035 0.119787)
(-0.156901 -0.0112897 0.077326)
(-0.176065 -0.0193728 0.0129533)
(-0.183811 -0.0220886 -0.0743659)
(-0.170793 -0.0170514 -0.175017)
(-0.128012 -0.00702983 -0.243755)
(-0.0451158 0.000150436 -0.175044)
(-0.0111207 0.0116759 0.0750144)
(-0.0416531 0.0147224 0.130269)
(-0.0792586 0.00923126 0.137395)
(-0.111606 -0.00113164 0.11944)
(-0.139289 -0.0134862 0.0821967)
(-0.161769 -0.0242868 0.023633)
(-0.174332 -0.0288619 -0.0580261)
(-0.165406 -0.02323 -0.153638)
(-0.124041 -0.00988713 -0.220472)
(-0.0433429 0.00046427 -0.160857)
(-0.00818335 0.0100203 0.0672363)
(-0.0293628 0.0120314 0.113308)
(-0.0551446 0.00786523 0.119784)
(-0.0790743 0.000175076 0.107491)
(-0.102975 -0.00914823 0.0808189)
(-0.126684 -0.0177483 0.0366763)
(-0.144664 -0.0221314 -0.0282792)
(-0.143722 -0.0184629 -0.107982)
(-0.10983 -0.00790489 -0.167919)
(-0.0385787 0.000802569 -0.128758)
(-0.00351864 0.00387915 0.0411176)
(-0.0115176 0.0044222 0.0628188)
(-0.0204138 0.00296683 0.0652827)
(-0.0296067 0.000395389 0.0606944)
(-0.0414581 -0.00271503 0.0509884)
(-0.0566899 -0.00562498 0.0336449)
(-0.0719179 -0.00715349 0.00505238)
(-0.077686 -0.00587898 -0.0344543)
(-0.0620562 -0.00235263 -0.0700031)
(-0.0226741 0.000331483 -0.0630265)
(-0.00727389 -0.00463333 0.058521)
(-0.0171657 -0.00475577 0.0793949)
(-0.0218173 -0.00211943 0.0770132)
(-0.0260133 0.00213577 0.0679845)
(-0.0348227 0.00730748 0.0550396)
(-0.0514863 0.012519 0.0345328)
(-0.0744266 0.0159074 0.000241722)
(-0.0920969 0.0144252 -0.0525765)
(-0.0873137 0.00727219 -0.108867)
(-0.0360604 -0.0012977 -0.116223)
(-0.0131774 -0.0113886 0.0927542)
(-0.03624 -0.0123633 0.143001)
(-0.0553123 -0.00525362 0.144369)
(-0.0697558 0.00656193 0.126402)
(-0.0854471 0.0206746 0.0952277)
(-0.106021 0.0340345 0.0462777)
(-0.129201 0.0413746 -0.0281183)
(-0.141256 0.035634 -0.131012)
(-0.127258 0.0161185 -0.229863)
(-0.0499559 -0.00410251 -0.21892)
(-0.0159558 -0.0127194 0.102335)
(-0.0473749 -0.0146895 0.164317)
(-0.0766731 -0.00592829 0.167468)
(-0.0968538 0.00890098 0.144892)
(-0.112731 0.0259916 0.104455)
(-0.127983 0.0407057 0.0425197)
(-0.142247 0.0465756 -0.0476493)
(-0.145177 0.037196 -0.168585)
(-0.129298 0.0149149 -0.282223)
(-0.0509901 -0.00388342 -0.260733)
(-0.0172867 -0.00916858 0.104753)
(-0.0533558 -0.0109031 0.170293)
(-0.0880874 -0.00419266 0.173463)
(-0.110231 0.00718412 0.148455)
(-0.124081 0.0199248 0.104272)
(-0.134036 0.0300959 0.0380899)
(-0.142185 0.0328875 -0.0565724)
(-0.141286 0.0247505 -0.183313)
(-0.127693 0.00911381 -0.302656)
(-0.0515212 -0.00239036 -0.277663)
(-0.0177916 -0.00327496 0.105251)
(-0.0558067 -0.00394059 0.171602)
(-0.0926858 -0.00147334 0.174472)
(-0.115182 0.00269742 0.14843)
(-0.127504 0.00728836 0.103075)
(-0.134728 0.010794 0.0359383)
(-0.140469 0.0114958 -0.0596458)
(-0.138924 0.0083717 -0.188263)
(-0.127318 0.00295366 -0.309896)
(-0.0520767 -0.000759873 -0.283905)
(-0.0177916 0.00327497 0.105251)
(-0.0558067 0.00394059 0.171602)
(-0.0926858 0.00147334 0.174472)
(-0.115182 -0.00269742 0.14843)
(-0.127504 -0.00728836 0.103075)
(-0.134728 -0.010794 0.0359383)
(-0.140469 -0.0114958 -0.0596458)
(-0.138924 -0.00837169 -0.188263)
(-0.127318 -0.00295365 -0.309896)
(-0.0520767 0.000759877 -0.283905)
(-0.0172867 0.00916858 0.104753)
(-0.0533558 0.0109031 0.170293)
(-0.0880874 0.00419265 0.173463)
(-0.110231 -0.00718412 0.148455)
(-0.124081 -0.0199248 0.104272)
(-0.134036 -0.0300959 0.0380899)
(-0.142185 -0.0328875 -0.0565724)
(-0.141286 -0.0247505 -0.183313)
(-0.127693 -0.00911381 -0.302657)
(-0.0515212 0.00239036 -0.277663)
(-0.0159558 0.0127194 0.102335)
(-0.0473749 0.0146895 0.164317)
(-0.0766731 0.00592829 0.167468)
(-0.0968538 -0.00890098 0.144892)
(-0.112731 -0.0259916 0.104455)
(-0.127983 -0.0407057 0.0425197)
(-0.142247 -0.0465756 -0.0476493)
(-0.145177 -0.037196 -0.168585)
(-0.129298 -0.0149149 -0.282224)
(-0.0509901 0.00388343 -0.260733)
(-0.0131774 0.0113886 0.0927542)
(-0.03624 0.0123633 0.143001)
(-0.0553123 0.00525362 0.144369)
(-0.0697558 -0.00656193 0.126402)
(-0.0854472 -0.0206746 0.0952277)
(-0.106021 -0.0340345 0.0462777)
(-0.129201 -0.0413746 -0.0281183)
(-0.141256 -0.0356339 -0.131012)
(-0.127258 -0.0161185 -0.229863)
(-0.0499559 0.00410251 -0.21892)
(-0.00727389 0.00463333 0.058521)
(-0.0171657 0.00475577 0.0793949)
(-0.0218173 0.00211943 0.0770132)
(-0.0260133 -0.00213577 0.0679845)
(-0.0348227 -0.00730748 0.0550396)
(-0.0514863 -0.012519 0.0345328)
(-0.0744266 -0.0159074 0.000241721)
(-0.0920969 -0.0144252 -0.0525765)
(-0.0873137 -0.00727219 -0.108867)
(-0.0360604 0.0012977 -0.116223)
(-0.0166546 -0.00636794 0.0816639)
(-0.0290397 -0.00641795 0.0920015)
(-0.0195202 -0.00269611 0.0802366)
(-0.0104526 0.00312828 0.0643775)
(-0.00868352 0.0100431 0.0480262)
(-0.0196949 0.0173761 0.0264133)
(-0.0459687 0.0231069 -0.00982283)
(-0.0763056 0.0219136 -0.0722744)
(-0.0963951 0.0104619 -0.151543)
(-0.0417988 -0.00589903 -0.195019)
(-0.026045 -0.0144571 0.12188)
(-0.0516816 -0.0151761 0.165179)
(-0.0483324 -0.00595728 0.156028)
(-0.0376542 0.00861883 0.129854)
(-0.0298534 0.0256295 0.0961218)
(-0.0318425 0.0423707 0.0495095)
(-0.0486253 0.0535039 -0.0220103)
(-0.0696488 0.0477592 -0.135153)
(-0.0957184 0.0196005 -0.272752)
(-0.0360489 -0.0139069 -0.325309)
(-0.0290094 -0.0150518 0.13142)
(-0.0616284 -0.0169271 0.189292)
(-0.0652273 -0.00646962 0.183712)
(-0.0556092 0.0102136 0.154686)
(-0.0430132 0.0290528 0.114229)
(-0.0342727 0.0457621 0.0578156)
(-0.0374117 0.0540557 -0.0257211)
(-0.0462739 0.0440203 -0.15543)
(-0.0761073 0.0146904 -0.313517)
(-0.027853 -0.0119811 -0.366679)
(-0.0300123 -0.0103789 0.133429)
(-0.0659107 -0.0120703 0.195846)
(-0.0730267 -0.00444382 0.19154)
(-0.0635361 0.00766916 0.161662)
(-0.0476726 0.0209648 0.119199)
(-0.0325724 0.0318971 0.0600613)
(-0.0287863 0.0359466 -0.026726)
(-0.0333167 0.0274159 -0.161997)
(-0.068108 0.00812008 -0.327951)
(-0.0261619 -0.00700628 -0.381998)
(-0.0302854 -0.0036267 0.133748)
(-0.0673634 -0.00427731 0.197211)
(-0.0756831 -0.00153714 0.193123)
(-0.0659163 0.00279069 0.162961)
(-0.0484159 0.00745278 0.120068)
(-0.0306751 0.0111231 0.0604642)
(-0.0246358 0.0122209 -0.0270476)
(-0.0286671 0.0090105 -0.164305)
(-0.0664371 0.00253526 -0.333244)
(-0.0264013 -0.00218348 -0.387657)
(-0.0302854 0.00362671 0.133748)
(-0.0673634 0.00427731 0.197211)
(-0.0756831 0.00153713 0.193123)
(-0.0659163 -0.00279069 0.162961)
(-0.0484159 -0.00745278 0.120068)
(-0.0306751 -0.0111231 0.0604642)
(-0.0246358 -0.0122209 -0.0270476)
(-0.0286671 -0.00901049 -0.164305)
(-0.0664371 -0.00253525 -0.333244)
(-0.0264013 0.00218349 -0.387657)
(-0.0300123 0.0103789 0.133429)
(-0.0659107 0.0120703 0.195846)
(-0.0730267 0.00444382 0.19154)
(-0.0635361 -0.00766916 0.161662)
(-0.0476726 -0.0209648 0.119199)
(-0.0325724 -0.0318971 0.0600613)
(-0.0287864 -0.0359466 -0.026726)
(-0.0333167 -0.0274159 -0.161997)
(-0.068108 -0.00812008 -0.327951)
(-0.0261619 0.00700628 -0.381998)
(-0.0290094 0.0150518 0.13142)
(-0.0616284 0.0169271 0.189292)
(-0.0652273 0.00646962 0.183712)
(-0.0556092 -0.0102136 0.154686)
(-0.0430132 -0.0290528 0.114229)
(-0.0342727 -0.0457621 0.0578156)
(-0.0374117 -0.0540557 -0.0257211)
(-0.0462739 -0.0440203 -0.15543)
(-0.0761073 -0.0146904 -0.313517)
(-0.027853 0.0119811 -0.366679)
(-0.026045 0.0144571 0.12188)
(-0.0516816 0.0151761 0.165179)
(-0.0483324 0.00595728 0.156028)
(-0.0376542 -0.00861883 0.129854)
(-0.0298534 -0.0256295 0.0961218)
(-0.0318425 -0.0423707 0.0495095)
(-0.0486253 -0.0535039 -0.0220103)
(-0.0696488 -0.0477592 -0.135153)
(-0.0957184 -0.0196005 -0.272752)
(-0.0360489 0.0139069 -0.325309)
(-0.0166546 0.00636794 0.0816639)
(-0.0290398 0.00641795 0.0920015)
(-0.0195202 0.00269611 0.0802366)
(-0.0104526 -0.00312828 0.0643775)
(-0.00868352 -0.0100431 0.0480262)
(-0.0196949 -0.0173761 0.0264133)
(-0.0459687 -0.0231069 -0.00982283)
(-0.0763056 -0.0219136 -0.0722744)
(-0.0963951 -0.0104619 -0.151543)
(-0.0417988 0.00589903 -0.195019)
(-0.0238868 -0.0112065 0.150417)
(-0.0207472 -0.0118708 0.0982031)
(0.0269773 -0.00733614 0.0628969)
(0.0609231 -0.000866193 0.0416779)
(0.0817739 0.00645411 0.0254391)
(0.0843971 0.0143491 0.00778089)
(0.0625324 0.0216815 -0.0207017)
(0.0252891 0.0210372 -0.078183)
(-0.0422079 0.00544517 -0.17341)
(-0.00685219 -0.0176506 -0.259319)
(-0.0427246 -0.0229086 0.209783)
(-0.0427459 -0.0257663 0.16907)
(0.021017 -0.016608 0.127183)
(0.0763243 -0.00264881 0.0953644)
(0.120917 0.0135161 0.0662503)
(0.149191 0.0302045 0.0328772)
(0.147863 0.0448242 -0.0163285)
(0.129233 0.0432245 -0.106757)
(0.0390494 0.0108411 -0.255771)
(0.0433748 -0.0314336 -0.369125)
(-0.0480749 -0.0207024 0.219867)
(-0.0525627 -0.0256325 0.189071)
(0.0101126 -0.017256 0.150179)
(0.0699016 -0.00333379 0.117262)
(0.12331 0.0129531 0.0844884)
(0.165455 0.0287565 0.0452908)
(0.178337 0.040518 -0.0109276)
(0.1742 0.0362497 -0.110125)
(0.0794117 0.00668993 -0.274866)
(0.062682 -0.0221736 -0.39487)
(-0.0490858 -0.0131843 0.220808)
(-0.0553519 -0.0170672 0.19307)
(0.0059603 -0.011539 0.155872)
(0.066791 -0.00219694 0.123363)
(0.123123 0.00857583 0.0899913)
(0.170412 0.0186285 0.0492056)
(0.188195 0.0252253 -0.00936457)
(0.188271 0.0214969 -0.111553)
(0.0893012 0.00401686 -0.281658)
(0.0657055 -0.0115372 -0.403621)
(-0.0491095 -0.00443569 0.220568)
(-0.0557416 -0.0058505 0.193397)
(0.00523624 -0.00394067 0.156666)
(0.0665118 -0.000721051 0.124393)
(0.123801 0.00294317 0.0910616)
(0.172612 0.00628427 0.0500379)
(0.191525 0.00832919 -0.00920908)
(0.1919 0.0069554 -0.112578)
(0.0903541 0.00136906 -0.28449)
(0.0653127 -0.00340614 -0.406812)
(-0.0491095 0.0044357 0.220568)
(-0.0557416 0.0058505 0.193397)
(0.00523624 0.00394067 0.156666)