/*--------------------------------*- C++ -*----------------------------------*\
  =========                 |
  \\      /  F ield         | OpenFOAM: The Open Source CFD Toolbox
   \\    /   O peration     | Website:  https://openfoam.org
    \\  /    A nd           | Version:  9
     \\/     M anipulation  |
\*---------------------------------------------------------------------------*/
FoamFile
{
    format      ascii;
    class       volScalarField;
    location    "0.33";
    object      p;
}
// * * * * * * * * * * * * * * * * * * * * * * * * * * * * * * * * * * * * * //

dimensions      [0 2 -2 0 0 0 0];

internalField   nonuniform List<scalar> 
1000
(
2.60717e-08
-0.000384011
0.000127702
0.00142444
0.00349678
0.0061728
0.00902159
0.011366
0.0125407
0.0118435
0.000170581
-0.000544938
-0.000107354
0.00123731
0.00346059
0.0063739
0.00949252
0.012015
0.01315
0.0119688
0.000715264
-0.000209591
0.000197629
0.00160927
0.00400091
0.00717171
0.01058
0.0132484
0.0142437
0.0124917
0.00125933
0.000209305
0.000600208
0.00206603
0.00459149
0.00797386
0.0115723
0.0143207
0.0151876
0.0130287
0.00158614
0.000482248
0.000866938
0.00236002
0.00495163
0.00843494
0.0121328
0.0149159
0.0157129
0.0133544
0.00158595
0.000482082
0.000866809
0.00235993
0.00495157
0.0084349
0.0121328
0.0149159
0.0157129
0.0133544
0.00125871
0.000208778
0.00059981
0.00206575
0.00459129
0.00797373
0.0115723
0.0143206
0.0151876
0.0130287
0.000714041
-0.000210573
0.000196926
0.0016088
0.0040006
0.00717151
0.0105799
0.0132484
0.0142437
0.0124917
0.000168282
-0.000546556
-0.000108395
0.00123665
0.00346018
0.00637366
0.00949238
0.0120149
0.01315
0.0119688
-4.45156e-06
-0.000386381
0.000126379
0.00142366
0.00349632
0.00617253
0.00902144
0.0113659
0.0125407
0.0118436
0.000277499
-0.000109205
0.000411799
0.00161235
0.00350231
0.00596674
0.00864059
0.010943
0.0121526
0.0112404
0.00077481
1.20549e-05
0.000476618
0.00167091
0.00358504
0.00611671
0.00891102
0.0112955
0.0124604
0.0109341
0.00165943
0.000600512
0.00102246
0.00222138
0.00418822
0.00682134
0.00979799
0.0122589
0.0132875
0.0111492
0.00241499
0.00116556
0.00155315
0.00275645
0.00477439
0.00752222
0.010619
0.0131254
0.0140344
0.011478
0.0028377
0.00149867
0.00186791
0.00307266
0.0051171
0.00792647
0.011086
0.0136126
0.014458
0.0117064
0.00283753
0.00149852
0.00186779
0.00307258
0.00511704
0.00792642
0.0110859
0.0136126
0.014458
0.0117064
0.00241446
0.00116511
0.0015528
0.00275619
0.00477421
0.0075221
0.010619
0.0131253
0.0140344
0.011478
0.00165845
0.000599693
0.00102185
0.00222095
0.00418793
0.00682115
0.00979788
0.0122589
0.0132875
0.0111491
0.000773196
1.08059e-05
0.00047575
0.00167034
0.00358466
0.00611647
0.00891089
0.0112954
0.0124603
0.0109341
0.000275128
-0.000110846
0.000410743
0.00161168
0.0035019
0.00596648
0.00864043
0.010943
0.0121526
0.0112404
-0.000968946
-0.00148535
-0.00100621
0.000127317
0.00198693
0.00458029
0.00764932
0.0105684
0.0123444
0.0112375
-0.000184849
-0.00121701
-0.000799765
0.000323688
0.00220157
0.00487396
0.00808586
0.011133
0.0128436
0.0106997
0.00109891
-0.000353869
-6.98113e-06
0.00107853
0.00296425
0.00573332
0.00911315
0.0122679
0.0138232
0.0107807
0.00214852
0.000425507
0.000711339
0.00176018
0.0036514
0.00649255
0.00999677
0.0132119
0.0146305
0.0110077
0.0027191
0.000868799
0.00112045
0.00214713
0.00403984
0.00692107
0.0104818
0.0137205
0.0150667
0.0111837
0.00271897
0.000868684
0.00112035
0.00214706
0.00403979
0.00692103
0.0104817
0.0137204
0.0150667
0.0111837
0.00214812
0.000425156
0.00071106
0.00175997
0.00365125
0.00649244
0.0099967
0.0132118
0.0146304
0.0110077
0.0010982
-0.000354477
-7.45297e-06
0.00107818
0.00296401
0.00573315
0.00911304
0.0122678
0.0138232
0.0107807
-0.000185895
-0.00121788
-0.000800417
0.000323229
0.00220126
0.00487374
0.00808572
0.0111329
0.0128435
0.0106997
-0.000970275
-0.00148641
-0.00100698
0.000126787
0.00198657
0.00458004
0.00764916
0.0105683
0.0123443
0.0112375
-0.00405941
-0.00469131
-0.00425794
-0.00320697
-0.0013589
0.00151932
0.00541731
0.00973459
0.0129989
0.0121916
-0.00296147
-0.00426112
-0.00389706
-0.00284915
-0.00096568
0.00203453
0.00614762
0.0107522
0.013956
0.0115875
-0.00122259
-0.00308011
-0.00284115
-0.00191221
-0.000113906
0.00292198
0.00718466
0.0119953
0.0151098
0.0116261
0.000173003
-0.00204314
-0.00191588
-0.00110104
0.000607242
0.00361203
0.00799559
0.012927
0.0159467
0.0117997
0.000920774
-0.0014639
-0.00139968
-0.000651323
0.00100626
0.00400386
0.00842137
0.0133982
0.0163653
0.0119363
0.00092068
-0.00146398
-0.00139975
-0.000651376
0.00100622
0.00400383
0.00842135
0.0133982
0.0163653
0.0119363
0.000172717
-0.0020434
-0.00191608
-0.0011012
0.000607123
0.00361194
0.00799552
0.0129269
0.0159466
0.0117996
-0.00122308
-0.00308055
-0.0028415
-0.00191247
-0.000114107
0.00292183
0.00718455
0.0119953
0.0151097
0.011626
-0.00296215
-0.00426171
-0.00389754
-0.0028495
-0.00096594
0.00203433
0.00614747
0.0107521
0.0139559
0.0115875
-0.00406022
-0.00469202
-0.00425849
-0.00320738
-0.0013592
0.00151911
0.00541716
0.00973447
0.0129988
0.0121915
-0.00967658
-0.0102809
-0.00983561
-0.00891149
-0.00718337
-0.00403973
0.00108965
0.00793875
0.0143554
0.0154344
-0.00823861
-0.00968022
-0.00933479
-0.00844425
-0.00670896
-0.0034364
0.00196576
0.00933496
0.0158148
0.0151716
-0.00603815
-0.00819374
-0.00809524
-0.00751874
-0.00612966
-0.0030977
0.00230511
0.010037
0.0167568
0.0152982
-0.00430137
-0.0069128
-0.00702773
-0.00673118
-0.00564188
-0.0028123
0.00254446
0.0104862
0.0173306
0.015473
-0.0033826
-0.00620669
-0.00643937
-0.00629789
-0.00537412
-0.00267053
0.00266101
0.0106887
0.0175799
0.0155778
-0.00338267
-0.00620675
-0.00643942
-0.00629793
-0.00537414
-0.00267056
0.00266099
0.0106887
0.0175799
0.0155778
-0.00430157
-0.00691298
-0.00702788
-0.0067313
-0.00564197
-0.00281237
0.00254439
0.0104861
0.0173305
0.015473
-0.00603848
-0.00819405
-0.00809549
-0.00751894
-0.00612982
-0.00309783
0.00230501
0.0100369
0.0167567
0.0152982
-0.00823906
-0.00968062
-0.00933512
-0.00844452
-0.00670917
-0.00343656
0.00196562
0.00933484
0.0158147
0.0151715
-0.00967711
-0.0102814
-0.009836
-0.00891179
-0.0071836
-0.00403992
0.00108948
0.00793861
0.0143552
0.0154342
-0.0186366
-0.0187386
-0.0180078
-0.0171726
-0.0156959
-0.0123729
-0.00565769
0.00509971
0.0172699
0.0236376
-0.0168122
-0.0179899
-0.0174721
-0.0168178
-0.0155579
-0.0124915
-0.00589271
0.00541658
0.0182063
0.0240112
-0.0141637
-0.0162493
-0.0162135
-0.0162532
-0.0158506
-0.0136168
-0.00749212
0.00427823
0.0180099
0.0242158
-0.0121203
-0.0147695
-0.0151189
-0.0157186
-0.0159954
-0.0143898
-0.00861937
0.00340248
0.017703
0.0243053
-0.0110562
-0.0139633
-0.0145166
-0.0154101
-0.0160338
-0.0147477
-0.00915275
0.0029709
0.0175203
0.0243271
-0.0110563
-0.0139634
-0.0145167
-0.0154101
-0.0160339
-0.0147477
-0.00915277
0.00297088
0.0175203
0.0243271
-0.0121204
-0.0147696
-0.015119
-0.0157187
-0.0159955
-0.0143899
-0.00861943
0.00340241
0.0177029
0.0243052
-0.0141639
-0.0162495
-0.0162136
-0.0162534
-0.0158508
-0.0136169
-0.00749224
0.00427813
0.0180098
0.0242157
-0.0168125
-0.0179902
-0.0174723
-0.016818
-0.0155581
-0.0124916
-0.00589286
0.00541645
0.0182061
0.024011
-0.0186369
-0.0187389
-0.0180081
-0.0171728
-0.0156961
-0.0123731
-0.00565787
0.00509956
0.0172698
0.0236375
-0.0323252
-0.0303124
-0.0284241
-0.027278
-0.0259916
-0.022637
-0.0142961
0.00159801
0.0227558
0.0410266
-0.0299167
-0.0293659
-0.0279939
-0.0274023
-0.0268659
-0.0246032
-0.0174568
-0.00160643
0.0207364
0.0412241
-0.0267531
-0.0273287
-0.0267994
-0.0274493
-0.0285011
-0.028005
-0.0222057
-0.00607536
0.0180423
0.04117
-0.0244085
-0.0256441
-0.0257175
-0.0272749
-0.0294749
-0.0301786
-0.0252038
-0.00886298
0.0163318
0.0410936
-0.023217
-0.0247432
-0.0251196
-0.0271259
-0.0298804
-0.0311489
-0.0265417
-0.0101004
0.0155717
0.0410336
-0.0232171
-0.0247432
-0.0251196
-0.0271259
-0.0298804
-0.0311489
-0.0265417
-0.0101005
0.0155716
0.0410336
-0.0244086
-0.0256442
-0.0257176
-0.027275
-0.029475
-0.0301787
-0.0252039
-0.00886305
0.0163318
0.0410935
-0.0267532
-0.0273288
-0.0267995
-0.0274495
-0.0285012
-0.0280051
-0.0222058
-0.00607547
0.0180422
0.0411699
-0.0299169
-0.0293661
-0.027994
-0.0274024
-0.0268661
-0.0246033
-0.017457
-0.00160658
0.0207363
0.0412239
-0.0323254
-0.0303126
-0.0284243
-0.0272782
-0.0259918
-0.0226372
-0.0142963
0.00159784
0.0227557
0.0410264
-0.0549346
-0.0448815
-0.0397951
-0.0370936
-0.0353836
-0.0317672
-0.0222984
-0.000495436
0.0320919
0.0744009
-0.0513138
-0.0433513
-0.0392468
-0.0378451
-0.0376692
-0.0362258
-0.0295874
-0.00931564
0.0245174
0.0747209
-0.0471487
-0.0404991
-0.0375766
-0.0380329
-0.0401612
-0.041233
-0.0367887
-0.0165412
0.0196946
0.0758764
-0.0442642
-0.0383093
-0.0361412
-0.0377992
-0.0414617
-0.0440941
-0.0408314
-0.0203095
0.0174839
0.0769729
-0.042862
-0.0371917
-0.0353815
-0.0376015
-0.0419649
-0.045294
-0.0425283
-0.0218341
0.0166866
0.0774822
-0.042862
-0.0371917
-0.0353815
-0.0376015
-0.0419649
-0.045294
-0.0425284
-0.0218341
0.0166866
0.0774821
-0.0442643
-0.0383094
-0.0361412
-0.0377993
-0.0414617
-0.0440942
-0.0408315
-0.0203096
0.0174838
0.0769728
-0.0471488
-0.0404992
-0.0375767
-0.038033
-0.0401613
-0.0412331
-0.0367888
-0.0165413
0.0196945
0.0758763
-0.0513139
-0.0433515
-0.0392469
-0.0378452
-0.0376694
-0.036226
-0.0295876
-0.00931582
0.0245172
0.0747207
-0.0549347
-0.0448817
-0.0397953
-0.0370937
-0.0353838
-0.0317673
-0.0222986
-0.000495629
0.0320917
0.0744007
-0.0871691
-0.0598804
-0.0505065
-0.0441687
-0.0407892
-0.0360553
-0.0239943
0.00617964
0.0521582
0.150766
-0.0793524
-0.056265
-0.0492597
-0.045364
-0.0442026
-0.0421662
-0.0339058
-0.00478197
0.045361
0.161994
-0.0730865
-0.0517537
-0.0463448
-0.0448225
-0.046504
-0.0472127
-0.0412418
-0.0106645
0.0457617
0.170526
-0.0693188
-0.0486849
-0.0441241
-0.0440575
-0.0475011
-0.0498643
-0.0449124
-0.0130679
0.0466251
0.175858
-0.0676334
-0.0472155
-0.043023
-0.0436079
-0.0478449
-0.0509437
-0.0463857
-0.0139935
0.0471004
0.178148
-0.0676334
-0.0472155
-0.043023
-0.043608
-0.047845
-0.0509438
-0.0463858
-0.0139935
0.0471003
0.178148
-0.0693188
-0.048685
-0.0441242
-0.0440576
-0.0475012
-0.0498644
-0.0449125
-0.013068
0.046625
0.175858
-0.0730866
-0.0517537
-0.0463448
-0.0448226
-0.0465042
-0.0472128
-0.041242
-0.0106646
0.0457615
0.170526
-0.0793525
-0.056265
-0.0492598
-0.0453641
-0.0442027
-0.0421663
-0.033906
-0.00478217
0.0453608
0.161994
-0.0871692
-0.0598805
-0.0505066
-0.0441689
-0.0407893
-0.0360555
-0.0239945
0.00617943
0.052158
0.150766
-0.197879
-0.0730941
-0.0479252
-0.0388298
-0.0338892
-0.0269212
-0.0103246
0.0339983
0.119167
0.324193
-0.185756
-0.0608544
-0.0406107
-0.0357637
-0.0342611
-0.0304781
-0.0164502
0.0304587
0.129134
0.358256
-0.177208
-0.0524827
-0.034497
-0.0325683
-0.0341321
-0.0327969
-0.0198864
0.0299677
0.137977
0.378683
-0.172372
-0.0477786
-0.0307287
-0.0304292
-0.0338347
-0.0339316
-0.0215227
0.029918
0.142081
0.388435
-0.170277
-0.0457389
-0.0290418
-0.0294351
-0.0336672
-0.0344436
-0.0222533
0.0298479
0.143706
0.392118
-0.170277
-0.0457389
-0.0290418
-0.0294351
-0.0336672
-0.0344437
-0.0222533
0.0298479
0.143706
0.392118
-0.172372
-0.0477786
-0.0307288
-0.0304293
-0.0338348
-0.0339317
-0.0215228
0.0299179
0.142081
0.388435
-0.177208
-0.0524828
-0.034497
-0.0325684
-0.0341323
-0.0327971
-0.0198865
0.0299676
0.137977
0.378683
-0.185756
-0.0608545
-0.0406108
-0.0357638
-0.0342612
-0.0304783
-0.0164504
0.0304584
0.129133
0.358256
-0.197879
-0.0730941
-0.0479253
-0.03883
-0.0338893
-0.0269214
-0.0103248
0.0339981
0.119167
0.324192
)
;

boundaryField
{
    top
    {
        type            zeroGradient;
    }
    others
    {
        type            zeroGradient;
    }
}


// ************************************************************************* //
