/*--------------------------------*- C++ -*----------------------------------*\
  =========                 |
  \\      /  F ield         | OpenFOAM: The Open Source CFD Toolbox
   \\    /   O peration     | Website:  https://openfoam.org
    \\  /    A nd           | Version:  9
     \\/     M anipulation  |
\*---------------------------------------------------------------------------*/
FoamFile
{
    format      ascii;
    class       surfaceScalarField;
    location    "0.33";
    object      phi;
}
// * * * * * * * * * * * * * * * * * * * * * * * * * * * * * * * * * * * * * //

dimensions      [0 3 -1 0 0 0 0];

internalField   nonuniform List<scalar> 
2700
(
-7.96681e-08
-7.30618e-08
1.52729e-07
-3.36711e-07
-6.73206e-08
3.24363e-07
-6.51247e-07
-6.22225e-08
3.76759e-07
-9.40815e-07
-7.6172e-08
3.6574e-07
-1.13335e-06
-1.13744e-07
3.06274e-07
-1.15319e-06
-1.71457e-07
1.91298e-07
-9.45774e-07
-2.32515e-07
2.51029e-08
-5.39874e-07
-2.60231e-07
-1.45669e-07
-1.20294e-07
-2.14192e-07
-2.05388e-07
-6.67601e-08
-5.35335e-08
-1.81919e-07
-1.46523e-07
2.5538e-07
-6.95678e-07
-1.7498e-07
6.21418e-07
-1.30815e-06
-1.78185e-07
7.28437e-07
-1.85454e-06
-2.01176e-07
6.71395e-07
-2.20045e-06
-2.55305e-07
4.87468e-07
-2.21335e-06
-3.34127e-07
1.75573e-07
-1.80193e-06
-4.10733e-07
-2.33204e-07
-1.03255e-06
-4.33324e-07
-5.96292e-07
-2.50795e-07
-3.54139e-07
-6.41805e-07
-1.41044e-07
-1.76511e-07
-2.38647e-07
-1.50628e-07
2.42752e-07
-8.94195e-07
-1.98971e-07
6.79539e-07
-1.66766e-06
-2.08813e-07
8.0409e-07
-2.34923e-06
-2.29379e-07
7.09778e-07
-2.77025e-06
-2.74529e-07
4.40241e-07
-2.76818e-06
-3.39914e-07
3.71463e-09
-2.22694e-06
-3.96677e-07
-5.55288e-07
-1.2437e-06
-4.06914e-07
-1.00965e-06
-2.75934e-07
-3.3299e-07
-9.88918e-07
-1.47406e-07
-2.69572e-07
-2.65057e-07
-9.19085e-08
2.06338e-07
-9.94877e-07
-1.26786e-07
6.57635e-07
-1.85442e-06
-1.34546e-07
7.85276e-07
-2.60841e-06
-1.45894e-07
6.70502e-07
-3.06905e-06
-1.69787e-07
3.55905e-07
-3.04853e-06
-2.03648e-07
-1.56787e-07
-2.42852e-06
-2.32752e-07
-7.83942e-07
-1.32308e-06
-2.35677e-07
-1.27668e-06
-2.64025e-07
-1.93534e-07
-1.19851e-06
-9.03359e-08
-3.21095e-07
-2.74874e-07
1.53325e-12
1.82964e-07
-1.03559e-06
9.21194e-13
6.33926e-07
-1.93188e-06
6.74286e-13
7.61747e-07
-2.71704e-06
5.17249e-13
6.39267e-07
-3.19389e-06
3.77064e-13
3.07058e-07
-3.16471e-06
2.77822e-13
-2.32828e-07
-2.50726e-06
1.94777e-13
-8.90203e-07
-1.34707e-06
1.10152e-13
-1.39587e-06
-2.51676e-07
9.42669e-15
-1.28893e-06
-8.92549e-14
-3.42012e-07
-2.74874e-07
9.19115e-08
1.82964e-07
-1.03559e-06
1.26787e-07
6.33926e-07
-1.93188e-06
1.34548e-07
7.61747e-07
-2.71704e-06
1.45895e-07
6.39267e-07
-3.19389e-06
1.69787e-07
3.07058e-07
-3.16471e-06
2.03648e-07
-2.32828e-07
-2.50726e-06
2.32752e-07
-8.90203e-07
-1.34707e-06
2.35677e-07
-1.39587e-06
-2.51676e-07
1.93534e-07
-1.28893e-06
9.03357e-08
-3.42012e-07
-2.65057e-07
1.5063e-07
2.06338e-07
-9.94877e-07
1.98972e-07
6.57635e-07
-1.85442e-06
2.08814e-07
7.85277e-07
-2.60841e-06
2.2938e-07
6.70502e-07
-3.06905e-06
2.7453e-07
3.55904e-07
-3.04853e-06
3.39914e-07
-1.56787e-07
-2.42852e-06
3.96678e-07
-7.83942e-07
-1.32308e-06
4.06914e-07
-1.27668e-06
-2.64025e-07
3.3299e-07
-1.19851e-06
1.47406e-07
-3.21095e-07
-2.38647e-07
1.46524e-07
2.42753e-07
-8.94195e-07
1.7498e-07
6.79541e-07
-1.66766e-06
1.78185e-07
8.04091e-07
-2.34923e-06
2.01176e-07
7.09778e-07
-2.77025e-06
2.55305e-07
4.40241e-07
-2.76818e-06
3.34128e-07
3.71441e-09
-2.22694e-06
4.10734e-07
-5.55288e-07
-1.2437e-06
4.33324e-07
-1.00965e-06
-2.75934e-07
3.54139e-07
-9.88918e-07
1.41044e-07
-2.69572e-07
-1.81917e-07
7.30604e-08
2.55381e-07
-6.95678e-07
6.73199e-08
6.21421e-07
-1.30815e-06
6.22229e-08
7.28438e-07
-1.85454e-06
7.61724e-08
6.71395e-07
-2.20045e-06
1.13744e-07
4.87468e-07
-2.21335e-06
1.71457e-07
1.75573e-07
-1.80193e-06
2.32515e-07
-2.33204e-07
-1.03255e-06
2.60231e-07
-5.96292e-07
-2.50795e-07
2.14193e-07
-6.41805e-07
6.67602e-08
-1.76511e-07
-7.96689e-08
1.52729e-07
-3.36714e-07
3.24365e-07
-6.51249e-07
3.76758e-07
-9.40817e-07
3.6574e-07
-1.13335e-06
3.06274e-07
-1.15319e-06
1.91298e-07
-9.45775e-07
2.51029e-08
-5.39874e-07
-1.45669e-07
-1.20294e-07
-2.05388e-07
-5.35332e-08
-2.31616e-07
-1.97572e-07
5.81918e-07
-7.34985e-07
-2.33363e-07
1.0611e-06
-1.3103e-06
-2.336e-07
1.18567e-06
-1.82821e-06
-2.40023e-07
1.12367e-06
-2.17097e-06
-2.673e-07
9.1634e-07
-2.21421e-06
-3.15596e-07
5.50129e-07
-1.86658e-06
-3.67177e-07
4.46492e-08
-1.14614e-06
-3.72081e-07
-4.94021e-07
-3.39844e-07
-2.78759e-07
-7.32929e-07
-4.747e-08
-3.45908e-07
-5.78797e-07
-3.25873e-07
9.62478e-07
-1.70413e-06
-4.3614e-07
1.94953e-06
-2.95092e-06
-4.49756e-07
2.19138e-06
-4.02923e-06
-4.62268e-07
1.97195e-06
-4.69576e-06
-5.04212e-07
1.39091e-06
-4.72218e-06
-5.73764e-07
4.60159e-07
-3.94387e-06
-6.42766e-07
-7.35923e-07
-2.44356e-06
-6.37245e-07
-1.83144e-06
-7.86598e-07
-4.88911e-07
-2.08861e-06
-1.48205e-07
-8.62374e-07
-7.85564e-07
-3.07776e-07
1.01022e-06
-2.28252e-06
-4.39498e-07
2.17985e-06
-3.91512e-06
-4.60677e-07
2.44761e-06
-5.29852e-06
-4.72574e-07
2.10349e-06
-6.11969e-06
-5.08647e-07
1.26584e-06
-6.10631e-06
-5.6822e-07
-1.52095e-08
-5.04809e-06
-6.17783e-07
-1.63849e-06
-3.08792e-06
-6.03296e-07
-3.00378e-06
-9.73278e-07
-4.70232e-07
-3.12224e-06
-1.75477e-07
-1.21558e-06
-8.87953e-07
-1.80262e-07
9.66778e-07
-2.58282e-06
-2.66073e-07
2.17907e-06
-4.42047e-06
-2.81131e-07
2.44339e-06
-5.96199e-06
-2.87627e-07
2.02707e-06
-6.85842e-06
-3.0663e-07
1.05032e-06
-6.80541e-06
-3.3789e-07
-4.40126e-07
-5.58296e-06
-3.61623e-07
-2.26255e-06
-3.36945e-06
-3.50284e-07
-3.7432e-06
-1.02782e-06
-2.75917e-07
-3.73445e-06
-1.12878e-07
-1.41151e-06
-9.27061e-07
1.03619e-12
9.29761e-07
-2.70437e-06
5.02801e-14
2.14517e-06
-4.62853e-06
-7.42026e-14
2.40477e-06
-6.23624e-06
9.40567e-14
1.95935e-06
-7.16295e-06
2.14413e-13
9.27143e-07
-7.08883e-06
2.92343e-13
-6.44845e-07
-5.79222e-06
3.4576e-13
-2.54843e-06
-3.46928e-06
3.02167e-13
-4.06909e-06
-1.03753e-06
1.80479e-13
-3.99659e-06
3.86084e-14
-1.49242e-06
-9.27061e-07
1.80264e-07
9.29762e-07
-2.70437e-06
2.66073e-07
2.14517e-06
-4.62853e-06
2.8113e-07
2.40477e-06
-6.23624e-06
2.87628e-07
1.95935e-06
-7.16295e-06
3.0663e-07
9.27143e-07
-7.08883e-06
3.3789e-07
-6.44845e-07
-5.79222e-06
3.61624e-07
-2.54843e-06
-3.46928e-06
3.50285e-07
-4.06909e-06
-1.03753e-06
2.75917e-07
-3.99659e-06
1.12878e-07
-1.49242e-06
-8.87953e-07
3.07777e-07
9.66778e-07
-2.58282e-06
4.39498e-07
2.17908e-06
-4.42047e-06
4.60677e-07
2.44339e-06
-5.96199e-06
4.72574e-07
2.02707e-06
-6.85842e-06
5.08647e-07
1.05032e-06
-6.80541e-06
5.6822e-07
-4.40126e-07
-5.58296e-06
6.17784e-07
-2.26255e-06
-3.36945e-06
6.03296e-07
-3.7432e-06
-1.02782e-06
4.70232e-07
-3.73445e-06
1.75477e-07
-1.41151e-06
-7.85562e-07
3.25873e-07
1.01022e-06
-2.28252e-06
4.36138e-07
2.17985e-06
-3.91512e-06
4.49756e-07
2.44762e-06
-5.29852e-06
4.62268e-07
2.10349e-06
-6.11969e-06
5.04213e-07
1.26584e-06
-6.10631e-06
5.73765e-07
-1.52097e-08
-5.04809e-06
6.42766e-07
-1.63849e-06
-3.08792e-06
6.37246e-07
-3.00378e-06
-9.73278e-07
4.88911e-07
-3.12223e-06
1.48205e-07
-1.21558e-06
-5.78795e-07
1.97571e-07
9.62479e-07
-1.70413e-06
2.33361e-07
1.94953e-06
-2.95092e-06
2.33599e-07
2.19138e-06
-4.02923e-06
2.40023e-07
1.97195e-06
-4.69576e-06
2.67301e-07
1.39091e-06
-4.72218e-06
3.15597e-07
4.60158e-07
-3.94387e-06
3.67178e-07
-7.35923e-07
-2.44356e-06
3.72081e-07
-1.83144e-06
-7.86598e-07
2.78759e-07
-2.08861e-06
4.74701e-08
-8.62374e-07
-2.31616e-07
5.81916e-07
-7.34985e-07
1.0611e-06
-1.3103e-06
1.18567e-06
-1.82821e-06
1.12367e-06
-2.17097e-06
9.1634e-07
-2.21421e-06
5.50129e-07
-1.86658e-06
4.46494e-08
-1.14614e-06
-4.9402e-07
-3.39844e-07
-7.32929e-07
-3.45907e-07
-3.41492e-07
-3.0875e-07
1.23216e-06
-1.01651e-06
-3.78331e-07
2.11445e-06
-1.76845e-06
-3.76229e-07
2.31384e-06
-2.46013e-06
-3.64227e-07
2.17958e-06
-2.96565e-06
-3.68079e-07
1.78994e-06
-3.12537e-06
-3.96573e-07
1.10642e-06
-2.77111e-06
-4.35168e-07
1.25555e-07
-1.84262e-06
-4.38371e-07
-9.84145e-07
-6.40617e-07
-3.26826e-07
-1.6081e-06
-2.40911e-08
-9.62433e-07
-8.93546e-07
-4.88376e-07
2.03565e-06
-2.48705e-06
-6.62307e-07
3.82701e-06
-4.20507e-06
-6.69206e-07
4.20238e-06
-5.7085e-06
-6.45936e-07
3.75708e-06
-6.71689e-06
-6.42378e-07
2.67361e-06
-6.92545e-06
-6.69504e-07
9.41653e-07
-6.04128e-06
-7.03785e-07
-1.35148e-06
-4.01169e-06
-6.85077e-07
-3.61432e-06
-1.46339e-06
-5.23343e-07
-4.4404e-06
-1.20584e-07
-2.22927e-06
-1.23868e-06
-4.47115e-07
2.20764e-06
-3.40562e-06
-6.41313e-07
4.3258e-06
-5.70035e-06
-6.54436e-07
4.72757e-06
-7.65648e-06
-6.28921e-07
4.04259e-06
-8.90611e-06
-6.1644e-07
2.48954e-06
-9.07676e-06
-6.25301e-07
1.11231e-07
-7.82234e-06
-6.3515e-07
-2.96154e-06
-5.12817e-06
-6.04584e-07
-5.77844e-06
-1.84114e-06
-4.71615e-07
-6.46099e-06
-1.53196e-07
-3.02411e-06
-1.41513e-06
-2.56685e-07
2.19148e-06
-3.89129e-06
-3.79421e-07
4.39334e-06
-6.49324e-06
-3.89132e-07
4.78003e-06
-8.68098e-06
-3.72404e-07
3.9583e-06
-1.00407e-05
-3.60987e-07
2.15456e-06
-1.01644e-05
-3.59684e-07
-5.82057e-07
-8.68733e-06
-3.56884e-07
-4.01785e-06
-5.6311e-06
-3.35386e-07
-7.06863e-06
-1.97932e-06
-2.65743e-07
-7.59211e-06
-9.99067e-08
-3.44412e-06
-1.48365e-06
8.56239e-13
2.15673e-06
-4.08844e-06
-1.2823e-13
4.37053e-06
-6.8189e-06
-2.80706e-13
4.7461e-06
-9.10189e-06
-9.7666e-14
3.86994e-06
-1.05037e-05
5.3763e-14
1.96797e-06
-1.06001e-05
1.76032e-13
-9.08099e-07
-9.02365e-06
2.32212e-13
-4.48181e-06
-5.81466e-06
2.0057e-13
-7.61346e-06
-2.01973e-06
1.33931e-13
-8.05727e-06
8.53797e-14
-3.61205e-06
-1.48365e-06
2.56687e-07
2.15673e-06
-4.08844e-06
3.79421e-07
4.37053e-06
-6.8189e-06
3.89131e-07
4.7461e-06
-9.10189e-06
3.72404e-07
3.86994e-06
-1.05037e-05
3.60987e-07
1.96797e-06
-1.06001e-05
3.59684e-07
-9.08099e-07
-9.02365e-06
3.56884e-07
-4.48181e-06
-5.81466e-06
3.35386e-07
-7.61346e-06
-2.01973e-06
2.65744e-07
-8.05727e-06
9.99069e-08
-3.61205e-06
-1.41513e-06
4.47116e-07
2.19148e-06
-3.89129e-06
6.41312e-07
4.39334e-06
-6.49324e-06
6.54435e-07
4.78003e-06
-8.68098e-06
6.28921e-07
3.9583e-06
-1.00407e-05
6.1644e-07
2.15456e-06
-1.01644e-05
6.25302e-07
-5.82057e-07
-8.68733e-06
6.3515e-07
-4.01785e-06
-5.6311e-06
6.04584e-07
-7.06862e-06
-1.97932e-06
4.71616e-07
-7.59211e-06
1.53196e-07
-3.44412e-06
-1.23868e-06
4.88377e-07
2.20764e-06
-3.40562e-06
6.62306e-07
4.3258e-06
-5.70035e-06
6.69205e-07
4.72758e-06
-7.65647e-06
6.45936e-07
4.04259e-06
-8.90611e-06
6.42379e-07
2.48954e-06
-9.07675e-06
6.69504e-07
1.11231e-07
-7.82234e-06
7.03786e-07
-2.96154e-06
-5.12817e-06
6.85077e-07
-5.77844e-06
-1.84114e-06
5.23343e-07
-6.46099e-06
1.20584e-07
-3.02411e-06
-8.93545e-07
3.0875e-07
2.03565e-06
-2.48705e-06
3.7833e-07
3.82702e-06
-4.20507e-06
3.76228e-07
4.20239e-06
-5.7085e-06
3.64227e-07
3.75708e-06
-6.71689e-06
3.6808e-07
2.67361e-06
-6.92545e-06
3.96573e-07
9.41653e-07
-6.04128e-06
4.35168e-07
-1.35148e-06
-4.01169e-06
4.38372e-07
-3.61432e-06
-1.46339e-06
3.26826e-07
-4.4404e-06
2.40911e-08
-2.22927e-06
-3.41492e-07
1.23216e-06
-1.01651e-06
2.11445e-06
-1.76845e-06
2.31384e-06
-2.46013e-06
2.17958e-06
-2.96565e-06
1.78994e-06
-3.12538e-06
1.10642e-06
-2.77111e-06
1.25556e-07
-1.84262e-06
-9.84145e-07
-6.40617e-07
-1.6081e-06
-9.62433e-07
-4.44505e-07
-4.22633e-07
2.0993e-06
-1.267e-06
-5.16452e-07
3.45339e-06
-2.17057e-06
-4.94878e-07
3.71229e-06
-3.04277e-06
-4.40046e-07
3.49183e-06
-3.78088e-06
-3.89141e-07
2.91718e-06
-4.19912e-06
-3.64421e-07
1.88909e-06
-4.00773e-06
-3.69237e-07
3.03409e-07
-2.95575e-06
-3.92439e-07
-1.64369e-06
-1.21974e-06
-3.26808e-07
-3.01731e-06
-1.1287e-08
-2.17088e-06
-1.18472e-06
-6.55378e-07
3.45311e-06
-3.19581e-06
-8.76522e-07
6.19817e-06
-5.33777e-06
-8.44129e-07
6.6936e-06
-7.28119e-06
-7.34584e-07
5.99503e-06
-8.75985e-06
-6.16543e-07
4.37967e-06
-9.40124e-06
-5.24376e-07
1.743e-06
-8.71396e-06
-4.73915e-07
-1.93408e-06
-6.30763e-06
-4.70859e-07
-5.94223e-06
-2.6328e-06
-4.13684e-07
-8.02836e-06
-8.40902e-08
-4.78926e-06
-1.65621e-06
-5.89636e-07
3.79811e-06
-4.42605e-06
-8.29548e-07
7.04867e-06
-7.32094e-06
-8.01124e-07
7.57945e-06
-9.86075e-06
-6.84985e-07
6.53281e-06
-1.16797e-05
-5.49659e-07
4.24156e-06
-1.2313e-05
-4.23629e-07
6.43782e-07
-1.12114e-05
-3.43768e-07
-4.19325e-06
-7.98251e-06
-3.24699e-07
-9.15348e-06
-3.27905e-06
-3.08495e-07
-1.12696e-05
-1.0654e-07
-6.28071e-06
-1.89881e-06
-3.34294e-07
3.83494e-06
-5.07777e-06
-4.83536e-07
7.22629e-06
-8.37019e-06
-4.67397e-07
7.73872e-06
-1.12057e-05
-3.94693e-07
6.50348e-06
-1.31603e-05
-3.07469e-07
3.86702e-06
-1.37492e-05
-2.24547e-07
-1.92252e-07
-1.23816e-05
-1.63908e-07
-5.56534e-06
-8.71625e-06
-1.49127e-07
-1.09095e-05
-3.52924e-06
-1.53122e-07
-1.29345e-05
-6.76547e-08
-7.01225e-06
-1.9926e-06
6.99677e-13
3.81504e-06
-5.34005e-06
-1.11571e-13
7.23444e-06
-8.79591e-06
-3.25939e-13
7.73457e-06
-1.1749e-05
-2.29605e-13
6.42837e-06
-1.3753e-05
-1.36069e-13
3.66451e-06
-1.4307e-05
-5.08742e-14
-5.78661e-07
-1.28237e-05
1.52417e-14
-6.12907e-06
-8.98142e-06
5.68327e-14
-1.16048e-05
-3.61167e-06
1.32089e-13
-1.35801e-05
1.24071e-13
-7.29138e-06
-1.9926e-06
3.34295e-07
3.81504e-06
-5.34004e-06
4.83535e-07
7.23444e-06
-8.79591e-06
4.67396e-07
7.73457e-06
-1.1749e-05
3.94693e-07
6.42837e-06
-1.3753e-05
3.07468e-07
3.66451e-06
-1.4307e-05
2.24547e-07
-5.78661e-07
-1.28237e-05
1.63908e-07
-6.12907e-06
-8.98142e-06
1.49127e-07
-1.16048e-05
-3.61167e-06
1.53123e-07
-1.35801e-05
6.76549e-08
-7.29138e-06
-1.89881e-06
5.89637e-07
3.83494e-06
-5.07777e-06
8.29548e-07
7.22629e-06
-8.37019e-06
8.01124e-07
7.73872e-06
-1.12057e-05
6.84984e-07
6.50348e-06
-1.31603e-05
5.49659e-07
3.86702e-06
-1.37492e-05
4.23629e-07
-1.92252e-07
-1.23816e-05
3.43768e-07
-5.56534e-06
-8.71625e-06
3.24699e-07
-1.09095e-05
-3.52924e-06
3.08495e-07
-1.29345e-05
1.06541e-07
-7.01225e-06
-1.65621e-06
6.55378e-07
3.79811e-06
-4.42605e-06
8.76522e-07
7.04867e-06
-7.32094e-06
8.44129e-07
7.57946e-06
-9.86075e-06
7.34584e-07
6.53281e-06
-1.16797e-05
6.16543e-07
4.24156e-06
-1.2313e-05
5.24376e-07
6.43783e-07
-1.12114e-05
4.73915e-07
-4.19325e-06
-7.98251e-06
4.70859e-07
-9.15348e-06
-3.27905e-06
4.13684e-07
-1.12696e-05
8.40904e-08
-6.28071e-06
-1.18472e-06
4.22633e-07
3.45311e-06
-3.1958e-06
5.16452e-07
6.19817e-06
-5.33777e-06
4.94878e-07
6.69361e-06
-7.28119e-06
4.40046e-07
5.99503e-06
-8.75985e-06
3.89141e-07
4.37967e-06
-9.40124e-06
3.64421e-07
1.743e-06
-8.71396e-06
3.69237e-07
-1.93408e-06
-6.30763e-06
3.92439e-07
-5.94223e-06
-2.6328e-06
3.26807e-07
-8.02836e-06
1.12871e-08
-4.78926e-06
-4.44505e-07
2.0993e-06
-1.267e-06
3.45339e-06
-2.17057e-06
3.71229e-06
-3.04278e-06
3.49183e-06
-3.78088e-06
2.91718e-06
-4.19912e-06
1.88909e-06
-4.00773e-06
3.03409e-07
-2.95575e-06
-1.64369e-06
-1.21974e-06
-3.01731e-06
-2.17088e-06
-5.8088e-07
-5.39267e-07
3.21944e-06
-1.52902e-06
-6.39781e-07
5.04131e-06
-2.53468e-06
-5.60843e-07
5.2788e-06
-3.5607e-06
-4.03857e-07
4.9217e-06
-4.57981e-06
-2.13822e-07
4.15012e-06
-5.42454e-06
-3.01523e-08
2.76397e-06
-5.66248e-06
6.59077e-08
4.75438e-07
-4.6998e-06
1.14635e-08
-2.61783e-06
-2.31988e-06
-1.32363e-07
-5.26486e-06
-1.96846e-08
-4.47108e-06
-1.51089e-06
-8.20919e-07
5.24566e-06
-3.892e-06
-1.06077e-06
9.00026e-06
-6.36653e-06
-9.24735e-07
9.53203e-06
-8.69246e-06
-6.24173e-07
8.54128e-06
-1.06951e-05
-2.48674e-07
6.41711e-06
-1.19945e-05
1.19076e-07
2.89323e-06
-1.18913e-05
3.52306e-07
-2.32368e-06
-9.47954e-06
2.84761e-07
-8.6273e-06
-4.59662e-06
-3.11565e-09
-1.30405e-05
-5.48555e-08
-9.35071e-06
-2.09267e-06
-7.27263e-07
5.79713e-06
-5.3898e-06
-9.86081e-07
1.02711e-05
-8.7565e-06
-8.55485e-07
1.08769e-05
-1.17767e-05
-5.49541e-07
9.47833e-06
-1.41639e-05
-1.60097e-07
6.54021e-06
-1.54441e-05
2.27003e-07
1.81613e-06
-1.48915e-05
4.7974e-07
-4.87338e-06
-1.1606e-05
4.20607e-07
-1.25748e-05
-5.53576e-06
1.07103e-07
-1.74501e-05
-5.16696e-08
-1.18197e-05
-2.38584e-06
-4.07819e-07
5.90134e-06
-6.16824e-06
-5.67836e-07
1.05904e-05
-9.99259e-06
-4.90726e-07
1.11983e-05
-1.33333e-05
-3.04825e-07
9.59949e-06
-1.58444e-05
-6.63373e-08
6.28431e-06
-1.70142e-05
1.73358e-07
1.03117e-06
-1.61657e-05
3.24587e-07
-6.25863e-06
-1.24496e-05
2.86263e-07
-1.44913e-05
-5.88828e-06
9.0416e-08
-1.94791e-05
-2.73361e-08
-1.29249e-05
-2.49593e-06
5.29802e-13
5.90315e-06
-6.47304e-06
-1.08334e-13
1.06437e-05
-1.0479e-05
-4.01914e-13
1.12498e-05
-1.39388e-05
-4.3485e-13
9.58337e-06
-1.64809e-05
-3.9739e-13
6.14032e-06
-1.75928e-05
-2.78403e-13
7.06584e-07
-1.66175e-05
-1.09018e-13
-6.77975e-06
-1.27425e-05
2.8506e-14
-1.51936e-05
-6.01129e-06
1.70131e-13
-2.02209e-05
1.57287e-13
-1.333e-05
-2.49593e-06
4.0782e-07
5.90315e-06
-6.47304e-06
5.67835e-07
1.06437e-05
-1.0479e-05
4.90726e-07
1.12498e-05
-1.39388e-05
3.04824e-07
9.58337e-06
-1.64809e-05
6.63367e-08
6.14032e-06
-1.75928e-05
-1.73359e-07
7.06584e-07
-1.66175e-05
-3.24587e-07
-6.77975e-06
-1.27425e-05
-2.86263e-07
-1.51936e-05
-6.01129e-06
-9.04157e-08
-2.02209e-05
2.73364e-08
-1.333e-05
-2.38584e-06
7.27264e-07
5.90134e-06
-6.16824e-06
9.86081e-07
1.05904e-05
-9.99259e-06
8.55484e-07
1.11983e-05
-1.33333e-05
5.49541e-07
9.59949e-06
-1.58444e-05
1.60097e-07
6.28431e-06
-1.70142e-05
-2.27003e-07
1.03117e-06
-1.61657e-05
-4.7974e-07
-6.25863e-06
-1.24496e-05
-4.20607e-07
-1.44913e-05
-5.88828e-06
-1.07103e-07
-1.94791e-05
5.16698e-08
-1.29249e-05
-2.09267e-06
8.20919e-07
5.79713e-06
-5.3898e-06
1.06077e-06
1.02711e-05
-8.7565e-06
9.24734e-07
1.08769e-05
-1.17767e-05
6.24173e-07
9.47833e-06
-1.41639e-05
2.48674e-07
6.54021e-06
-1.54441e-05
-1.19076e-07
1.81613e-06
-1.48915e-05
-3.52305e-07
-4.87338e-06
-1.1606e-05
-2.84761e-07
-1.25748e-05
-5.53576e-06
3.11587e-09
-1.74501e-05
5.48557e-08
-1.18197e-05
-1.51089e-06
5.39267e-07
5.24566e-06
-3.892e-06
6.39781e-07
9.00026e-06
-6.36653e-06
5.60843e-07
9.53203e-06
-8.69246e-06
4.03857e-07
8.54128e-06
-1.06951e-05
2.13822e-07
6.41711e-06
-1.19945e-05
3.01524e-08
2.89323e-06
-1.18913e-05
-6.59075e-08
-2.32368e-06
-9.47954e-06
-1.14633e-08
-8.6273e-06
-4.59662e-06
1.32363e-07
-1.30405e-05
1.96848e-08
-9.35071e-06
-5.8088e-07
3.21944e-06
-1.52902e-06
5.04131e-06
-2.53468e-06
5.2788e-06
-3.5607e-06
4.9217e-06
-4.57981e-06
4.15012e-06
-5.42454e-06
2.76397e-06
-5.66248e-06
4.75439e-07
-4.6998e-06
-2.61783e-06
-2.31988e-06
-5.26486e-06
-4.47108e-06
-8.25572e-07
-6.59669e-07
4.70469e-06
-1.84121e-06
-7.31461e-07
6.78841e-06
-2.80051e-06
-5.26544e-07
6.76465e-06
-3.8342e-06
-1.65092e-07
6.12048e-06
-5.07572e-06
2.9612e-07
5.09552e-06
-6.45529e-06
7.66832e-07
3.37671e-06
-7.44915e-06
1.06593e-06
4.03366e-07
-6.99795e-06
9.20109e-07
-3.98914e-06
-4.1335e-06
3.70669e-07
-8.49998e-06
-7.84768e-08
-8.5261e-06
-1.94441e-06
-9.79539e-07
7.50994e-06
-4.5618e-06
-1.1889e-06
1.20751e-05
-7.07075e-06
-8.48234e-07
1.23627e-05
-9.43698e-06
-2.05749e-07
1.09482e-05
-1.16972e-05
6.14154e-07
8.35925e-06
-1.36227e-05
1.44148e-06
4.1441e-06
-1.44555e-05
1.94962e-06
-2.3745e-06
-1.27551e-05
1.70817e-06
-1.11158e-05
-7.22877e-06
7.5018e-07
-1.89464e-05
-8.52971e-08
-1.65727e-05
-2.59543e-06
-8.51832e-07
8.26485e-06
-6.21449e-06
-1.08783e-06
1.37891e-05
-9.64864e-06
-7.68905e-07
1.42317e-05
-1.26631e-05
-1.451e-07
1.24321e-05
-1.5178e-05
6.47102e-07
9.02218e-06
-1.69089e-05
1.42999e-06
3.5585e-06
-1.71892e-05
1.87806e-06
-4.5215e-06
-1.47001e-05
1.61315e-06
-1.49688e-05
-8.20501e-06
7.09461e-07
-2.39045e-05
-5.14788e-08
-2.00585e-05
-2.90472e-06
-4.71799e-07
8.42603e-06
-7.03231e-06
-6.19674e-07
1.42499e-05
-1.09144e-05
-4.34838e-07
1.47463e-05
-1.41848e-05
-6.72088e-08
1.2792e-05
-1.6704e-05
3.97874e-07
9.05282e-06
-1.81938e-05
8.49347e-07
3.10153e-06
-1.81226e-05
1.0914e-06
-5.54317e-06
-1.53112e-05
9.18892e-07
-1.66084e-05
-8.53558e-06
3.995e-07
-2.59448e-05
-1.9104e-08
-2.14928e-05
-3.01325e-06
3.60925e-13
8.4446e-06
-7.33491e-06
-1.33722e-13
1.43457e-05
-1.13836e-05
-4.67253e-13
1.48636e-05
-1.47357e-05
-5.60185e-13
1.28683e-05
-1.72309e-05
-4.78759e-13
9.03332e-06
-1.86085e-05
-2.79981e-13
2.93362e-06
-1.84083e-05
-5.86316e-14
-5.88862e-06
-1.55098e-05
9.83915e-14
-1.71732e-05
-8.66366e-06
1.90817e-13
-2.66676e-05
2.40396e-13
-2.20128e-05
-3.01325e-06
4.718e-07
8.4446e-06
-7.33491e-06
6.19674e-07
1.43457e-05
-1.13836e-05
4.34837e-07
1.48636e-05
-1.47357e-05
6.72079e-08
1.28683e-05
-1.72309e-05
-3.97875e-07
9.03332e-06
-1.86085e-05
-8.49347e-07
2.93362e-06
-1.84083e-05
-1.0914e-06
-5.88862e-06
-1.55098e-05
-9.18892e-07
-1.71732e-05
-8.66366e-06
-3.99499e-07
-2.66676e-05
1.91044e-08
-2.20128e-05
-2.90472e-06
8.51833e-07
8.42603e-06
-7.03231e-06
1.08783e-06
1.42499e-05
-1.09144e-05
7.68904e-07
1.47463e-05
-1.41848e-05
1.45099e-07
1.2792e-05
-1.6704e-05
-6.47102e-07
9.05282e-06
-1.81938e-05
-1.42999e-06
3.10153e-06
-1.81226e-05
-1.87806e-06
-5.54317e-06
-1.53112e-05
-1.61314e-06
-1.66084e-05
-8.53558e-06
-7.09461e-07
-2.59448e-05
5.14792e-08
-2.14928e-05
-2.59543e-06
9.79539e-07
8.26485e-06
-6.21449e-06
1.1889e-06
1.37891e-05
-9.64864e-06
8.48234e-07
1.42317e-05
-1.26631e-05
2.05749e-07
1.24321e-05
-1.5178e-05
-6.14154e-07
9.02218e-06
-1.69089e-05
-1.44148e-06
3.5585e-06
-1.71892e-05
-1.94962e-06
-4.5215e-06
-1.47001e-05
-1.70817e-06
-1.49688e-05
-8.20501e-06
-7.5018e-07
-2.39045e-05
8.52973e-08
-2.00585e-05
-1.94441e-06
6.5967e-07
7.50994e-06
-4.5618e-06
7.31461e-07
1.20751e-05
-7.07075e-06
5.26544e-07
1.23627e-05
-9.43698e-06
1.65092e-07
1.09482e-05
-1.16972e-05
-2.9612e-07
8.35925e-06
-1.36227e-05
-7.66831e-07
4.1441e-06
-1.44555e-05
-1.06593e-06
-2.3745e-06
-1.27551e-05
-9.20109e-07
-1.11158e-05
-7.22877e-06
-3.70668e-07
-1.89464e-05
7.84769e-08
-1.65727e-05
-8.25573e-07
4.70469e-06
-1.84121e-06
6.7884e-06
-2.80051e-06
6.76465e-06
-3.8342e-06
6.12048e-06
-5.07572e-06
5.09552e-06
-6.45529e-06
3.37671e-06
-7.44915e-06
4.03366e-07
-6.99795e-06
-3.98914e-06
-4.1335e-06
-8.49998e-06
-8.5261e-06
-1.39879e-06
-8.11376e-07
6.91486e-06
-2.27872e-06
-8.14067e-07
8.4824e-06
-2.82429e-06
-4.00813e-07
7.71103e-06
-3.48192e-06
2.57751e-07
6.52036e-06
-4.63419e-06
1.08359e-06
5.16419e-06
-6.43009e-06
1.96334e-06
3.20928e-06
-8.41252e-06
2.5786e-06
-1.92802e-07
-9.09021e-06
2.3638e-06
-5.67526e-06
-6.39144e-06
1.16598e-06
-1.23647e-05
-2.46551e-07
-1.4671e-05
-2.71382e-06
-1.15479e-06
1.05672e-05
-5.1897e-06
-1.28656e-06
1.50235e-05
-7.02011e-06
-6.46682e-07
1.44389e-05
-8.5813e-06
4.33588e-07
1.23335e-05
-1.0278e-05
1.77983e-06
9.3597e-06
-1.22396e-05
3.12909e-06
4.93999e-06
-1.39654e-05
3.93792e-06
-2.00808e-06
-1.38216e-05
3.44677e-06
-1.23425e-05
-9.28225e-06
1.57277e-06
-2.38926e-05
-3.34926e-07
-2.57665e-05
-3.35345e-06
-9.76019e-07
1.14395e-05
-6.79171e-06
-1.15381e-06
1.70946e-05
-9.39927e-06
-5.81502e-07
1.67741e-05
-1.13324e-05
4.14484e-07
1.43844e-05
-1.28955e-05
1.64013e-06
1.07249e-05
-1.4257e-05
2.81386e-06
5.23521e-06
-1.51733e-05
3.41812e-06
-3.08538e-06
-1.44115e-05
2.85346e-06
-1.51373e-05
-9.61017e-06
1.20613e-06
-2.83392e-05
-2.551e-07
-2.97485e-05
-3.62182e-06
-5.31322e-07
1.16032e-05
-7.5112e-06
-6.49338e-07
1.76348e-05
-1.04628e-05
-3.2681e-07
1.74432e-05
-1.24897e-05
2.43281e-07
1.49901e-05
-1.38498e-05
9.37928e-07
1.11151e-05
-1.4782e-05
1.58316e-06
5.26442e-06
-1.52697e-05
1.87926e-06
-3.51657e-06
-1.43518e-05
1.51888e-06
-1.61917e-05
-9.66952e-06
6.12265e-07
-3.00332e-05
-1.21362e-07
-3.12961e-05
-3.70253e-06
1.92129e-13
1.16158e-05
-7.74828e-06
-1.66402e-13
1.77421e-05
-1.08132e-05
-5.05522e-13
1.76017e-05
-1.28512e-05
-6.15533e-13
1.51496e-05
-1.41092e-05
-4.92624e-13
1.12292e-05
-1.48741e-05
-2.27729e-13
5.28171e-06
-1.52369e-05
4.01342e-14
-3.64652e-06
-1.43309e-05
2.0997e-13
-1.65603e-05
-9.73309e-06
3.00728e-13
-3.06532e-05
3.65652e-13
-3.18672e-05
-3.70253e-06
5.31322e-07
1.16158e-05
-7.74828e-06
6.49337e-07
1.77421e-05
-1.08132e-05
3.2681e-07
1.76017e-05
-1.28512e-05
-2.43282e-07
1.51496e-05
-1.41092e-05
-9.37929e-07
1.12292e-05
-1.48741e-05
-1.58316e-06
5.28171e-06
-1.52369e-05
-1.87926e-06
-3.64652e-06
-1.43309e-05
-1.51888e-06
-1.65603e-05
-9.73309e-06
-6.12265e-07
-3.06532e-05
1.21362e-07
-3.18672e-05
-3.62182e-06
9.76019e-07
1.16032e-05
-7.5112e-06
1.15381e-06
1.76348e-05
-1.04628e-05
5.81501e-07
1.74432e-05
-1.24897e-05
-4.14485e-07
1.49901e-05
-1.38498e-05
-1.64013e-06
1.11151e-05
-1.4782e-05
-2.81386e-06
5.26442e-06
-1.52697e-05
-3.41812e-06
-3.51657e-06
-1.43518e-05
-2.85346e-06
-1.61917e-05
-9.66952e-06
-1.20613e-06
-3.00332e-05
2.551e-07
-3.12961e-05
-3.35345e-06
1.15479e-06
1.14395e-05
-6.79171e-06
1.28656e-06
1.70946e-05
-9.39927e-06
6.46681e-07
1.67741e-05
-1.13324e-05
-4.33589e-07
1.43844e-05
-1.28955e-05
-1.77983e-06
1.07249e-05
-1.4257e-05
-3.12909e-06
5.23521e-06
-1.51733e-05
-3.93792e-06
-3.08538e-06
-1.44115e-05
-3.44677e-06
-1.51373e-05
-9.61017e-06
-1.57277e-06
-2.83392e-05
3.34926e-07
-2.97485e-05
-2.71382e-06
8.11376e-07
1.05672e-05
-5.1897e-06
8.14067e-07
1.50235e-05
-7.02011e-06
4.00813e-07
1.44389e-05
-8.5813e-06
-2.57751e-07
1.23335e-05
-1.0278e-05
-1.08359e-06
9.3597e-06
-1.22396e-05
-1.96334e-06
4.93999e-06
-1.39654e-05
-2.5786e-06
-2.00808e-06
-1.38216e-05
-2.3638e-06
-1.23425e-05
-9.28225e-06
-1.16598e-06
-2.38926e-05
2.46552e-07
-2.57665e-05
-1.39879e-06
6.91486e-06
-2.27873e-06
8.4824e-06
-2.82429e-06
7.71103e-06
-3.48192e-06
6.52036e-06
-4.63419e-06
5.16419e-06
-6.43009e-06
3.20928e-06
-8.41252e-06
-1.92802e-07
-9.09021e-06
-5.67526e-06
-6.39144e-06
-1.23647e-05
-1.4671e-05
-2.63518e-06
-1.0895e-06
1.06395e-05
-2.67632e-06
-1.04503e-06
9.56857e-06
-1.9554e-06
-4.25195e-07
7.41531e-06
-1.45629e-06
5.05134e-07
5.51611e-06
-1.83221e-06
1.62854e-06
3.91158e-06
-3.47133e-06
2.84297e-06
2.00542e-06
-6.31283e-06
3.80967e-06
-1.16097e-06
-8.68897e-06
3.63578e-06
-6.9349e-06
-7.63614e-06
1.73883e-06
-1.51564e-05
-8.77659e-07
-2.14295e-05
-4.41489e-06
-1.45625e-06
1.53488e-05
-5.60357e-06
-1.56552e-06
1.67326e-05
-5.19098e-06
-6.84625e-07
1.42858e-05
-4.38395e-06
6.98705e-07
1.13329e-05
-4.04131e-06
2.37075e-06
8.27485e-06
-4.7296e-06
4.05181e-06
4.41943e-06
-6.59598e-06
5.16889e-06
-1.50092e-06
-8.58588e-06
4.58508e-06
-1.13019e-05
-7.66259e-06
1.83999e-06
-2.4917e-05
-1.17665e-06
-3.31301e-05
-5.08051e-06
-1.1759e-06
1.62397e-05
-7.02514e-06
-1.35149e-06
1.88252e-05
-7.00231e-06
-6.085e-07
1.66751e-05
-6.06824e-06
5.93749e-07
1.35553e-05
-5.03514e-06
2.02399e-06
1.00386e-05
-4.58354e-06
3.39568e-06
5.43974e-06
-5.21247e-06
4.17206e-06
-1.45963e-06
-6.70113e-06
3.49037e-06
-1.25539e-05
-6.42308e-06
1.24157e-06
-2.80188e-05
-8.41297e-07
-3.65069e-05
-5.29405e-06
-6.22877e-07
1.63442e-05
-7.5603e-06
-7.43608e-07
1.92932e-05
-7.70571e-06
-3.39455e-07
1.73196e-05
-6.67947e-06
3.24919e-07
1.42326e-05
-5.27171e-06
1.1093e-06
1.06221e-05
-4.24836e-06
1.83929e-06
5.79746e-06
-4.3601e-06
2.20905e-06
-1.44182e-06
-5.81435e-06
1.78403e-06
-1.30311e-05
-6.02364e-06
5.98673e-07
-2.9181e-05
-3.88493e-07
-3.77725e-05
-5.33649e-06
2.29248e-14
1.63294e-05
-7.69414e-06
-3.00441e-13
1.93561e-05
-7.88107e-06
-5.93463e-13
1.74492e-05
-6.80681e-06
-6.4257e-13
1.44003e-05
-5.25743e-06
-4.59676e-13
1.07891e-05
-4.0479e-06
-1.4651e-13
5.91147e-06
-4.04085e-06
1.37594e-13
-1.44452e-06
-5.58127e-06
2.63165e-13
-1.32358e-05
-5.99609e-06
3.36975e-13
-2.96397e-05
4.61099e-13
-3.82518e-05
-5.33649e-06
6.22877e-07
1.63294e-05
-7.69414e-06
7.43607e-07
1.93561e-05
-7.88107e-06
3.39454e-07
1.74492e-05
-6.80681e-06
-3.2492e-07
1.44003e-05
-5.25743e-06
-1.1093e-06
1.07891e-05
-4.0479e-06
-1.83929e-06
5.91147e-06
-4.04085e-06
-2.20905e-06
-1.44452e-06
-5.58127e-06
-1.78403e-06
-1.32358e-05
-5.99609e-06
-5.98672e-07
-2.96397e-05
3.88494e-07
-3.82518e-05
-5.29405e-06
1.1759e-06
1.63442e-05
-7.5603e-06
1.35149e-06
1.92932e-05
-7.70571e-06
6.08499e-07
1.73196e-05
-6.67947e-06
-5.93749e-07
1.42326e-05
-5.27171e-06
-2.02399e-06
1.06221e-05
-4.24836e-06
-3.39568e-06
5.79746e-06
-4.3601e-06
-4.17206e-06
-1.44182e-06
-5.81435e-06
-3.49037e-06
-1.30311e-05
-6.02364e-06
-1.24157e-06
-2.9181e-05
8.41297e-07
-3.77725e-05
-5.08051e-06
1.45625e-06
1.62397e-05
-7.02514e-06
1.56552e-06
1.88252e-05
-7.00231e-06
6.84624e-07
1.66751e-05
-6.06825e-06
-6.98706e-07
1.35553e-05
-5.03514e-06
-2.37075e-06
1.00386e-05
-4.58354e-06
-4.05181e-06
5.43974e-06
-5.21247e-06
-5.16889e-06
-1.45963e-06
-6.70113e-06
-4.58508e-06
-1.25539e-05
-6.42308e-06
-1.83999e-06
-2.80188e-05
1.17665e-06
-3.65069e-05
-4.41489e-06
1.0895e-06
1.53488e-05
-5.60357e-06
1.04503e-06
1.67326e-05
-5.19098e-06
4.25195e-07
1.42858e-05
-4.38395e-06
-5.05134e-07
1.13329e-05
-4.04131e-06
-1.62854e-06
8.27485e-06
-4.7296e-06
-2.84297e-06
4.41943e-06
-6.59598e-06
-3.80967e-06
-1.50092e-06
-8.58588e-06
-3.63578e-06
-1.13019e-05
-7.66259e-06
-1.73883e-06
-2.4917e-05
8.77659e-07
-3.31301e-05
-2.63518e-06
1.06395e-05
-2.67632e-06
9.56857e-06
-1.9554e-06
7.41531e-06
-1.45629e-06
5.51611e-06
-1.83222e-06
3.91158e-06
-3.47133e-06
2.00542e-06
-6.31283e-06
-1.16097e-06
-8.68897e-06
-6.9349e-06
-7.63614e-06
-1.51564e-05
-2.14295e-05
-2.7593e-06
-1.81058e-06
1.52094e-05
1.81598e-07
-1.82043e-06
8.44811e-06
4.01812e-06
-1.07525e-06
4.65405e-06
6.7801e-06
-9.6866e-08
2.85099e-06
8.0112e-06
1.06216e-06
1.61832e-06
7.24907e-06
2.31541e-06
4.52149e-07
4.10913e-06
3.53086e-06
-1.55189e-06
-7.10388e-07
3.53797e-06
-5.65336e-06
-3.51024e-06
1.12363e-06
-1.34802e-05
-2.55385e-06
-2.23859e-05
-4.97946e-06
-2.1097e-06
2.06274e-05
-1.31162e-06
-2.44565e-06
1.369e-05
4.22921e-06
-1.61345e-06
9.28315e-06
9.15662e-06
-2.95908e-07
6.60456e-06
1.28044e-05
1.24951e-06
4.43976e-06
1.44532e-05
2.87398e-06
2.21203e-06
1.31913e-05
4.25084e-06
-9.59029e-07
8.70962e-06
3.9922e-06
-7.27442e-06
2.83143e-06
9.7013e-07
-1.88853e-05
-2.54566e-06
-3.03069e-05
-5.75355e-06
-1.5618e-06
2.14453e-05
-2.32133e-06
-1.9641e-06
1.49114e-05
3.3532e-06
-1.35363e-06
1.07408e-05
8.92213e-06
-3.18694e-07
8.00914e-06
1.36582e-05
9.23824e-07
5.62818e-06
1.67407e-05
2.19275e-06
3.03851e-06
1.6845e-05
3.17595e-06
-4.89042e-07
1.29081e-05
2.89739e-06
-7.52224e-06
5.34183e-06
6.79129e-07
-2.01616e-05
-1.56213e-06
-3.21486e-05
-5.90707e-06
-7.90592e-07
2.14801e-05
-2.60448e-06
-1.03759e-06
1.50641e-05
3.05632e-06
-7.28042e-07
1.10332e-05
8.79867e-06
-1.89768e-07
8.36137e-06
1.39091e-05
4.65827e-07
5.96964e-06
1.74887e-05