/*--------------------------------*- C++ -*----------------------------------*\
  =========                 |
  \\      /  F ield         | OpenFOAM: The Open Source CFD Toolbox
   \\    /   O peration     | Website:  https://openfoam.org
    \\  /    A nd           | Version:  9
     \\/     M anipulation  |
\*---------------------------------------------------------------------------*/
FoamFile
{
    format      ascii;
    class       volVectorField;
    location    "0.33";
    object      U;
}
// * * * * * * * * * * * * * * * * * * * * * * * * * * * * * * * * * * * * * //

dimensions      [0 1 -1 0 0 0 0];

internalField   nonuniform List<vector> 
1000
(
(-0.000108638 -0.000364335 0.000371501)
(-0.00174382 -0.000263981 0.00103727)
(-0.00492708 -0.000206219 0.00127664)
(-0.00808906 -0.000286711 0.00129131)
(-0.0106248 -0.000516758 0.00113964)
(-0.0118045 -0.000864585 0.000778126)
(-0.0109061 -0.0012243 0.000205146)
(-0.00767098 -0.00138548 -0.000407769)
(-0.00280676 -0.00113353 -0.000574865)
(-6.29798e-05 -0.000322266 8.0249e-05)
(-0.000358742 -0.00116976 0.000609914)
(-0.00374254 -0.00124705 0.00207269)
(-0.0100174 -0.00121478 0.00257925)
(-0.0161209 -0.00142314 0.00247036)
(-0.0208388 -0.0019478 0.00189428)
(-0.0228577 -0.00272202 0.000813653)
(-0.0209204 -0.00349559 -0.000684857)
(-0.0146456 -0.00377133 -0.00203429)
(-0.00551159 -0.00307721 -0.00209468)
(-0.000272168 -0.00110149 -0.000166465)
(-0.000495974 -0.00161802 0.000414262)
(-0.0048535 -0.00208231 0.00217597)
(-0.0128276 -0.00216937 0.00278951)
(-0.020503 -0.00240532 0.00257768)
(-0.026341 -0.00293396 0.00171358)
(-0.0287143 -0.0036984 0.000171694)
(-0.0260518 -0.00440117 -0.00189124)
(-0.0179277 -0.00456111 -0.00358692)
(-0.00637047 -0.00372421 -0.00335092)
(-7.5015e-05 -0.00157588 -0.000398954)
(-0.000543488 -0.00130023 0.000164909)
(-0.00539495 -0.00178418 0.00198681)
(-0.0142768 -0.00189147 0.00263499)
(-0.022795 -0.00205934 0.00237477)
(-0.0292312 -0.0024161 0.00137067)
(-0.0317393 -0.00292639 -0.000406256)
(-0.0285822 -0.00335914 -0.00275978)
(-0.019372 -0.00341257 -0.00459779)
(-0.00647555 -0.00279607 -0.00410987)
(0.000205825 -0.00127578 -0.0005194)
(-0.000554403 -0.000488558 1.97373e-05)
(-0.00560511 -0.000687309 0.00183954)
(-0.0148723 -0.000733021 0.00249879)
(-0.0237523 -0.000791265 0.00222486)
(-0.0304438 -0.000911727 0.00117039)
(-0.0330016 -0.00108232 -0.000700886)
(-0.029608 -0.00122659 -0.00316411)
(-0.0198981 -0.00123668 -0.00504799)
(-0.0064158 -0.00101669 -0.00443377)
(0.000377191 -0.000480073 -0.000563231)
(-0.000554402 0.00048859 1.97382e-05)
(-0.00560511 0.000687328 0.00183954)
(-0.0148723 0.000733035 0.0024988)
(-0.0237523 0.000791276 0.00222486)
(-0.0304438 0.000911734 0.00117039)
(-0.0330016 0.00108232 -0.000700886)
(-0.029608 0.00122659 -0.00316411)
(-0.0198981 0.00123669 -0.00504799)
(-0.0064158 0.00101669 -0.00443377)
(0.000377191 0.000480071 -0.000563231)
(-0.000543485 0.00130026 0.000164913)
(-0.00539495 0.0017842 0.00198682)
(-0.0142768 0.00189149 0.00263499)
(-0.022795 0.00205935 0.00237477)
(-0.0292312 0.0024161 0.00137067)
(-0.0317393 0.0029264 -0.000406257)
(-0.0285822 0.00335914 -0.00275978)
(-0.019372 0.00341257 -0.00459779)
(-0.00647555 0.00279607 -0.00410987)
(0.000205824 0.00127577 -0.0005194)
(-0.000495964 0.00161804 0.000414274)
(-0.0048535 0.00208233 0.00217598)
(-0.0128276 0.00216938 0.00278952)
(-0.020503 0.00240533 0.00257769)
(-0.026341 0.00293396 0.00171358)
(-0.0287143 0.00369841 0.000171692)
(-0.0260518 0.00440118 -0.00189124)
(-0.0179277 0.00456111 -0.00358692)
(-0.00637047 0.00372421 -0.00335093)
(-7.50152e-05 0.00157587 -0.000398955)
(-0.00035871 0.00116974 0.000609948)
(-0.00374252 0.00124703 0.00207272)
(-0.0100174 0.00121478 0.00257926)
(-0.0161209 0.00142314 0.00247037)
(-0.0208388 0.00194781 0.00189427)
(-0.0228577 0.00272203 0.000813651)
(-0.0209204 0.00349559 -0.00068486)
(-0.0146456 0.00377133 -0.00203429)
(-0.00551159 0.00307721 -0.00209469)
(-0.000272168 0.00110149 -0.000166466)
(-0.000108587 0.000364285 0.000371554)
(-0.0017438 0.000263951 0.0010373)
(-0.00492711 0.000206214 0.00127664)
(-0.00808909 0.000286711 0.00129131)
(-0.0106249 0.00051676 0.00113964)
(-0.0118045 0.000864587 0.000778125)
(-0.0109061 0.00122431 0.000205145)
(-0.00767098 0.00138548 -0.000407769)
(-0.00280676 0.00113353 -0.000574865)
(-6.298e-05 0.000322267 8.02501e-05)
(-0.000716657 -0.00104904 0.00309424)
(-0.00431732 -0.00120458 0.00603338)
(-0.0102377 -0.00117716 0.00688474)
(-0.0159714 -0.00120647 0.00661642)
(-0.0205097 -0.00136268 0.0054746)
(-0.0226671 -0.00164882 0.00335618)
(-0.0212523 -0.00196483 0.000353662)
(-0.0156373 -0.00201644 -0.00268372)
(-0.00674054 -0.00148621 -0.00385323)
(-0.000848659 -0.000133306 -0.00136471)
(-0.00198144 -0.00283782 0.00507441)
(-0.0103557 -0.00362852 0.0112227)
(-0.0233734 -0.003685 0.0129286)
(-0.0356318 -0.00379092 0.0118116)
(-0.0448639 -0.00418715 0.0084799)
(-0.0487689 -0.00486323 0.00295526)
(-0.0451658 -0.00555837 -0.00415092)
(-0.0331177 -0.00556689 -0.0104607)
(-0.0148279 -0.00420413 -0.0114685)
(-0.0022829 -0.00098075 -0.00381703)
(-0.00272806 -0.00344235 0.00505068)
(-0.0139727 -0.00483037 0.0123657)
(-0.031184 -0.0050425 0.0143239)
(-0.0471062 -0.00518083 0.0125277)
(-0.0587774 -0.00560496 0.00768778)
(-0.0633475 -0.00629897 -6.29085e-05)
(-0.058139 -0.00692618 -0.00963901)
(-0.0421428 -0.0067969 -0.0175085)
(-0.0185102 -0.00525864 -0.0174663)
(-0.00267797 -0.00182255 -0.00560633)
(-0.0030702 -0.00260292 0.00455264)
(-0.0158096 -0.00382718 0.0121249)
(-0.0352754 -0.00404206 0.0141118)
(-0.0531277 -0.00414017 0.0119313)
(-0.0660361 -0.00442466 0.00627805)
(-0.0708276 -0.00488875 -0.00265803)
(-0.0645759 -0.00524924 -0.013529)
(-0.0463393 -0.00509179 -0.0220602)
(-0.0198562 -0.00399514 -0.0210968)
(-0.00260326 -0.00158293 -0.00661106)
(-0.00318724 -0.000952345 0.0042086)
(-0.0165318 -0.00142847 0.0117884)
(-0.0369511 -0.00151566 0.0137676)
(-0.0556172 -0.00154844 0.0114364)
(-0.069039 -0.00164275 0.00545794)
(-0.0738918 -0.00179758 -0.0039609)
(-0.0671484 -0.00190997 -0.0153409)
(-0.0479225 -0.00184374 -0.0240982)
(-0.0202377 -0.0014583 -0.0226718)
(-0.00248688 -0.000611475 -0.00702625)
(-0.00318724 0.000952367 0.00420861)
(-0.0165318 0.00142847 0.0117884)
(-0.0369511 0.00151566 0.0137676)
(-0.0556172 0.00154844 0.0114364)
(-0.069039 0.00164276 0.00545794)
(-0.0738918 0.00179759 -0.0039609)
(-0.0671484 0.00190997 -0.0153409)
(-0.0479225 0.00184374 -0.0240982)
(-0.0202377 0.0014583 -0.0226718)
(-0.00248688 0.000611476 -0.00702625)
(-0.0030702 0.00260294 0.00455264)
(-0.0158096 0.00382718 0.0121249)
(-0.0352754 0.00404206 0.0141119)
(-0.0531277 0.00414017 0.0119313)
(-0.0660361 0.00442466 0.00627805)
(-0.0708276 0.00488875 -0.00265803)
(-0.0645759 0.00524925 -0.013529)
(-0.0463393 0.00509179 -0.0220602)
(-0.0198562 0.00399514 -0.0210968)
(-0.00260326 0.00158293 -0.00661106)
(-0.00272805 0.00344237 0.00505069)
(-0.0139727 0.00483036 0.0123657)
(-0.0311839 0.00504249 0.0143239)
(-0.0471062 0.00518083 0.0125277)
(-0.0587774 0.00560496 0.00768777)
(-0.0633475 0.00629897 -6.29116e-05)
(-0.058139 0.00692619 -0.00963901)
(-0.0421428 0.00679691 -0.0175085)
(-0.0185102 0.00525864 -0.0174663)
(-0.00267797 0.00182255 -0.00560633)
(-0.00198142 0.0028378 0.00507443)
(-0.0103556 0.00362849 0.0112227)
(-0.0233734 0.00368499 0.0129286)
(-0.0356318 0.00379092 0.0118116)
(-0.0448639 0.00418716 0.0084799)
(-0.0487689 0.00486324 0.00295525)
(-0.0451658 0.00555838 -0.00415092)
(-0.0331177 0.00556689 -0.0104607)
(-0.0148279 0.00420414 -0.0114685)
(-0.0022829 0.000980751 -0.00381703)
(-0.000716627 0.00104901 0.00309426)
(-0.00431731 0.00120455 0.0060334)
(-0.0102377 0.00117715 0.00688474)
(-0.0159714 0.00120646 0.00661642)
(-0.0205097 0.00136269 0.0054746)
(-0.0226671 0.00164882 0.00335618)
(-0.0212523 0.00196483 0.000353663)
(-0.0156373 0.00201644 -0.00268372)
(-0.00674054 0.00148621 -0.00385323)
(-0.00084866 0.000133306 -0.0013647)
(-0.00116874 -0.00167442 0.00871095)
(-0.00616915 -0.00203452 0.0153049)
(-0.0139475 -0.00200121 0.0169165)
(-0.0214665 -0.0019359 0.0159731)
(-0.027735 -0.00197098 0.0130427)
(-0.0313981 -0.00216221 0.0079069)
(-0.0307023 -0.00242712 0.0006729)
(-0.0241117 -0.00247596 -0.00693237)
(-0.0118293 -0.00180948 -0.0107247)
(-0.0021712 4.01821e-05 -0.00572214)
(-0.00330617 -0.00435359 0.0143324)
(-0.0155819 -0.00570749 0.0277885)
(-0.0336339 -0.00572139 0.0308651)
(-0.0505006 -0.0055377 0.0276629)
(-0.0636921 -0.00556761 0.01954)
(-0.0704349 -0.00591911 0.00656366)
(-0.067527 -0.00636591 -0.0100969)
(-0.0524365 -0.00628444 -0.025652)
(-0.0262302 -0.00470789 -0.0300465)
(-0.00519319 -0.000671034 -0.0136237)
(-0.00463468 -0.00507215 0.0153114)
(-0.0214924 -0.00716479 0.0312309)
(-0.0458789 -0.00729596 0.0345824)
(-0.068171 -0.00702964 0.0296101)
(-0.085012 -0.00693245 0.0179256)
(-0.0928949 -0.00710435 -0.000124018)
(-0.0879826 -0.00730634 -0.0223492)
(-0.0674486 -0.00700439 -0.0417243)
(-0.0332241 -0.00541467 -0.0444526)
(-0.00633033 -0.00157315 -0.0188572)
(-0.00527979 -0.00373436 0.0149559)
(-0.0245708 -0.00549701 0.0314731)
(-0.0523916 -0.0056379 0.034738)
(-0.0775302 -0.00540261 0.028738)
(-0.0961641 -0.00524937 0.0151086)
(-0.104415 -0.00524596 -0.00562313)
(-0.0981354 -0.00523201 -0.0307128)
(-0.0744961 -0.00493009 -0.0517279)
(-0.0360737 -0.00388983 -0.0528791)
(-0.00655181 -0.00139578 -0.0217381)
(-0.00551258 -0.00134734 0.0145709)
(-0.025793 -0.00201971 0.031149)
(-0.05506 -0.00207731 0.0343346)
(-0.0813841 -0.00198338 0.0279167)
(-0.100741 -0.00191087 0.013503)
(-0.109083 -0.00188536 -0.00830539)
(-0.102149 -0.00184938 -0.0345067)
(-0.0771633 -0.00172916 -0.0560929)
(-0.0370175 -0.00138101 -0.0564553)
(-0.00653882 -0.000541458 -0.0229218)
(-0.00551258 0.00134736 0.0145709)
(-0.025793 0.0020197 0.0311491)
(-0.05506 0.0020773 0.0343346)
(-0.0813841 0.00198337 0.0279167)
(-0.100741 0.00191087 0.013503)
(-0.109083 0.00188536 -0.00830539)
(-0.102149 0.00184938 -0.0345067)
(-0.0771633 0.00172917 -0.0560929)
(-0.0370175 0.00138102 -0.0564553)
(-0.00653882 0.000541459 -0.0229218)
(-0.00527979 0.00373438 0.0149559)
(-0.0245708 0.00549701 0.0314731)
(-0.0523916 0.00563789 0.034738)
(-0.0775302 0.0054026 0.028738)
(-0.0961641 0.00524937 0.0151086)
(-0.104415 0.00524596 -0.00562313)
(-0.0981354 0.00523201 -0.0307128)
(-0.0744961 0.00493009 -0.0517279)
(-0.0360737 0.00388983 -0.0528791)
(-0.00655181 0.00139578 -0.0217381)
(-0.00463467 0.00507216 0.0153114)
(-0.0214924 0.00716478 0.0312309)
(-0.0458789 0.00729595 0.0345824)
(-0.068171 0.00702964 0.0296101)
(-0.085012 0.00693246 0.0179256)
(-0.0928949 0.00710435 -0.000124018)
(-0.0879826 0.00730634 -0.0223492)
(-0.0674486 0.0070044 -0.0417243)
(-0.0332241 0.00541467 -0.0444526)
(-0.00633033 0.00157315 -0.0188572)
(-0.00330615 0.00435359 0.0143324)
(-0.0155819 0.00570748 0.0277885)
(-0.0336339 0.00572139 0.0308651)
(-0.0505006 0.00553771 0.0276629)
(-0.0636921 0.00556762 0.01954)
(-0.0704349 0.00591912 0.00656366)
(-0.067527 0.00636592 -0.0100969)
(-0.0524365 0.00628444 -0.025652)
(-0.0262302 0.00470789 -0.0300465)
(-0.00519319 0.000671034 -0.0136237)
(-0.00116873 0.00167441 0.00871093)
(-0.00616915 0.00203451 0.0153049)
(-0.0139475 0.00200121 0.0169165)
(-0.0214665 0.0019359 0.015973)
(-0.027735 0.00197098 0.0130427)
(-0.0313981 0.00216221 0.0079069)
(-0.0307023 0.00242712 0.000672901)
(-0.0241117 0.00247596 -0.00693237)
(-0.0118293 0.00180948 -0.0107247)
(-0.0021712 -4.0183e-05 -0.00572214)
(-0.00162211 -0.00231661 0.0162916)
(-0.00786723 -0.00282792 0.0273365)
(-0.017194 -0.00269911 0.0296807)
(-0.0263331 -0.00241817 0.0279557)
(-0.0346717 -0.00218277 0.0231581)
(-0.040928 -0.00212783 0.0146765)
(-0.0426515 -0.00227612 0.00208235)
(-0.0366079 -0.0024867 -0.0124454)
(-0.0209521 -0.00200498 -0.0215881)
(-0.00513212 8.4746e-05 -0.0141227)
(-0.00457564 -0.00590893 0.0268019)
(-0.0203748 -0.00768263 0.0491755)
(-0.0428503 -0.00738558 0.0535822)
(-0.0640189 -0.00651108 0.0479307)
(-0.0818162 -0.0056373 0.0344937)
(-0.0933638 -0.00506825 0.0128378)
(-0.0941649 -0.00488843 -0.0162636)
(-0.0787384 -0.00500605 -0.0460374)
(-0.0448485 -0.00420556 -0.0587695)
(-0.0109704 -0.000420908 -0.0318325)
(-0.00643592 -0.00673961 0.0292913)
(-0.0283836 -0.00935306 0.0557486)
(-0.0591568 -0.00903574 0.0604368)
(-0.087397 -0.00778375 0.0518098)
(-0.110095 -0.00635895 0.032588)
(-0.123476 -0.00510256 0.00269038)
(-0.122239 -0.00429561 -0.0357979)
(-0.100349 -0.00411711 -0.072834)
(-0.05624 -0.00379183 -0.0844633)
(-0.0133303 -0.00110483 -0.0425599)
(-0.00734949 -0.00488309 0.0293521)
(-0.032574 -0.00703242 0.0568943)
(-0.0678361 -0.00680228 0.0613866)
(-0.0997222 -0.00575962 0.0510815)
(-0.124692 -0.00450846 0.0287903)
(-0.138581 -0.00331044 -0.00532327)
(-0.135733 -0.00247949 -0.0483091)
(-0.110104 -0.00228187 -0.08837)
(-0.0609266 -0.00231048 -0.0984606)
(-0.0140731 -0.000946559 -0.0481005)
(-0.00768014 -0.001746 0.0290592)
(-0.0342275 -0.0025566 0.0567843)
(-0.0713577 -0.00247317 0.0611422)
(-0.10473 -0.00207491 0.0501783)
(-0.130574 -0.00158987 0.0267028)
(-0.14455 -0.00111837 -0.00900961)
(-0.140902 -0.000773448 -0.053677)
(-0.113698 -0.000695914 -0.0947824)
(-0.0625485 -0.000752723 -0.104097)
(-0.014267 -0.000359205 -0.050279)
(-0.00768013 0.00174602 0.0290592)
(-0.0342275 0.0025566 0.0567844)
(-0.0713577 0.00247316 0.0611422)
(-0.10473 0.00207491 0.0501783)
(-0.130574 0.00158987 0.0267028)
(-0.14455 0.00111837 -0.00900961)
(-0.140902 0.000773448 -0.053677)
(-0.113698 0.000695915 -0.0947824)
(-0.0625485 0.000752725 -0.104097)
(-0.014267 0.000359207 -0.050279)
(-0.00734948 0.00488311 0.0293521)
(-0.032574 0.00703242 0.0568943)
(-0.0678361 0.00680227 0.0613866)
(-0.0997222 0.00575962 0.0510815)
(-0.124692 0.00450846 0.0287903)
(-0.138581 0.00331044 -0.00532326)
(-0.135733 0.0024795 -0.0483091)
(-0.110104 0.00228187 -0.08837)
(-0.0609266 0.00231048 -0.0984606)
(-0.0140731 0.000946561 -0.0481005)
(-0.00643592 0.00673962 0.0292913)
(-0.0283836 0.00935305 0.0557486)
(-0.0591568 0.00903573 0.0604368)
(-0.087397 0.00778375 0.0518098)
(-0.110095 0.00635895 0.032588)
(-0.123476 0.00510256 0.00269039)
(-0.122239 0.00429561 -0.0357979)
(-0.100349 0.00411711 -0.0728339)
(-0.05624 0.00379183 -0.0844633)
(-0.0133302 0.00110484 -0.0425599)
(-0.00457563 0.00590893 0.0268019)
(-0.0203748 0.00768263 0.0491755)
(-0.0428502 0.00738557 0.0535822)
(-0.0640189 0.00651108 0.0479307)
(-0.0818162 0.0056373 0.0344937)
(-0.0933637 0.00506825 0.0128378)
(-0.0941649 0.00488843 -0.0162636)
(-0.0787384 0.00500605 -0.0460374)
(-0.0448485 0.00420556 -0.0587695)
(-0.0109704 0.000420909 -0.0318325)
(-0.00162211 0.00231661 0.0162915)
(-0.00786723 0.00282792 0.0273365)
(-0.017194 0.00269911 0.0296807)
(-0.0263331 0.00241817 0.0279557)
(-0.0346717 0.00218277 0.0231581)
(-0.040928 0.00212783 0.0146765)
(-0.0426515 0.00227612 0.00208235)
(-0.0366079 0.0024867 -0.0124454)
(-0.0209521 0.00200498 -0.0215881)
(-0.00513212 -8.47455e-05 -0.0141227)
(-0.00234918 -0.00298364 0.026148)
(-0.00990996 -0.00354773 0.0420641)
(-0.0203162 -0.00311354 0.0447649)
(-0.0305858 -0.00229241 0.0420319)
(-0.0410178 -0.00135637 0.0353585)
(-0.0509387 -0.000582048 0.0233239)
(-0.0573702 -0.000290092 0.00415723)
(-0.054582 -0.000791451 -0.0203525)
(-0.0368907 -0.00125512 -0.039282)
(-0.0113648 -8.77967e-05 -0.0305226)
(-0.00619355 -0.00747697 0.0427786)
(-0.0254628 -0.00941471 0.0752064)
(-0.0515026 -0.0082433 0.0805985)
(-0.0760552 -0.00576895 0.0722841)
(-0.0983163 -0.00274631 0.0535422)
(-0.116042 0.000129099 0.0226511)
(-0.123695 0.00186536 -0.0215261)
(-0.112071 0.00116132 -0.0717108)
(-0.073689 -0.000957984 -0.101611)
(-0.0219281 -0.000406248 -0.0654413)
(-0.00852595 -0.0083675 0.0472036)
(-0.035294 -0.011196 0.0856744)
(-0.0712654 -0.00974015 0.0915294)
(-0.10412 -0.00637348 0.0792841)
(-0.132044 -0.00210118 0.0528555)
(-0.151786 0.00216475 0.0107973)
(-0.157053 0.0049599 -0.0467312)
(-0.13836 0.00431598 -0.108652)
(-0.0892787 0.000869735 -0.14029)
(-0.0259803 -0.000585136 -0.0845245)
(-0.00963983 -0.00597846 0.0478962)
(-0.0403389 -0.00828298 0.0881042)
(-0.0815857 -0.00716627 0.0938045)
(-0.118557 -0.00447553 0.0794857)
(-0.148831 -0.00102468 0.0492486)
(-0.168647 0.00243507 0.00192223)
(-0.171681 0.00465558 -0.0614169)
(-0.148974 0.00409473 -0.12795)
(-0.0952541 0.00123945 -0.159334)
(-0.0274485 -0.000397622 -0.0935562)
(-0.0100285 -0.00212105 0.0478013)
(-0.0422757 -0.00298528 0.0883896)
(-0.0856596 -0.00257463 0.0939836)
(-0.12423 -0.00156902 0.0789097)
(-0.155302 -0.00027563 0.0473049)
(-0.174962 0.00101931 -0.001879)
(-0.176942 0.00182455 -0.0672414)
(-0.152645 0.00159669 -0.135336)
(-0.0973399 0.000527459 -0.166518)
(-0.0279656 -0.000131213 -0.0969327)
(-0.0100285 0.00212106 0.0478013)
(-0.0422757 0.00298528 0.0883896)
(-0.0856596 0.00257462 0.0939836)
(-0.12423 0.00156901 0.0789097)
(-0.155302 0.000275623 0.0473049)
(-0.174962 -0.00101932 -0.001879)
(-0.176942 -0.00182455 -0.0672414)
(-0.152645 -0.00159669 -0.135336)
(-0.0973399 -0.000527456 -0.166518)
(-0.0279656 0.000131216 -0.0969327)
(-0.00963983 0.00597847 0.0478962)
(-0.0403389 0.00828298 0.0881042)
(-0.0815857 0.00716626 0.0938045)
(-0.118557 0.00447552 0.0794857)
(-0.148831 0.00102467 0.0492486)
(-0.168647 -0.00243507 0.00192223)
(-0.171681 -0.00465558 -0.0614169)
(-0.148974 -0.00409473 -0.12795)
(-0.0952541 -0.00123945 -0.159334)
(-0.0274485 0.000397625 -0.0935562)
(-0.00852595 0.0083675 0.0472036)
(-0.035294 0.011196 0.0856744)
(-0.0712654 0.00974015 0.0915294)
(-0.10412 0.00637347 0.0792841)
(-0.132044 0.00210118 0.0528555)
(-0.151786 -0.00216475 0.0107973)
(-0.157053 -0.0049599 -0.0467312)
(-0.13836 -0.00431598 -0.108652)
(-0.0892787 -0.000869732 -0.14029)
(-0.0259803 0.000585138 -0.0845245)
(-0.00619355 0.00747698 0.0427786)
(-0.0254628 0.00941471 0.0752064)
(-0.0515026 0.0082433 0.0805985)
(-0.0760552 0.00576895 0.0722841)
(-0.0983163 0.00274632 0.0535422)
(-0.116042 -0.000129097 0.0226511)
(-0.123695 -0.00186535 -0.0215261)
(-0.112071 -0.00116132 -0.0717108)
(-0.073689 0.000957986 -0.101611)
(-0.0219281 0.000406249 -0.0654413)
(-0.00234918 0.00298364 0.026148)
(-0.00990996 0.00354773 0.0420641)
(-0.0203162 0.00311354 0.0447649)
(-0.0305858 0.00229241 0.0420319)
(-0.0410178 0.00135637 0.0353585)
(-0.0509387 0.000582049 0.0233239)
(-0.0573702 0.000290093 0.00415723)
(-0.054582 0.000791452 -0.0203525)
(-0.0368907 0.00125512 -0.039282)
(-0.0113648 8.77982e-05 -0.0305226)
(-0.00390249 -0.00369491 0.0390044)
(-0.013077 -0.00410981 0.0589572)
(-0.0232979 -0.00297664 0.0605962)
(-0.0330507 -0.00104482 0.0559565)
(-0.044371 0.00135519 0.0470886)
(-0.0580982 0.00379602 0.0314525)
(-0.0714453 0.00532427 0.00509961)
(-0.0759313 0.00453663 -0.0322178)
(-0.0603136 0.00173906 -0.0666622)
(-0.0220303 -0.000413283 -0.0609456)
(-0.0088221 -0.0090386 0.0629445)
(-0.0314938 -0.0106622 0.104978)
(-0.0586512 -0.00766523 0.109831)
(-0.0831187 -0.00217546 0.0981422)
(-0.106516 0.00482127 0.074354)
(-0.128715 0.0119952 0.0348794)
(-0.144655 0.0165888 -0.0248654)
(-0.14211 0.0146706 -0.100308)
(-0.107771 0.0063365 -0.15882)
(-0.0376797 -0.00100093 -0.123501)
(-0.01148 -0.00987736 0.0695098)
(-0.0424575 -0.0124226 0.119857)
(-0.0803111 -0.00880494 0.125743)
(-0.113055 -0.001802 0.109823)
(-0.14125 0.00714885 0.0774263)
(-0.163853 0.0160837 0.0251503)
(-0.175681 0.0213808 -0.0506305)
(-0.165417 0.0185461 -0.142114)
(-0.122695 0.00814727 -0.207976)
(-0.0424105 -0.000725942 -0.153646)
(-0.0126484 -0.00694612 0.0708862)
(-0.0477936 -0.00906207 0.123776)
(-0.0910996 -0.00635959 0.129843)
(-0.127621 -0.00099649 0.111962)
(-0.157243 0.00582601 0.0757841)
(-0.178546 0.0124678 0.0181918)
(-0.186938 0.0160856 -0.0638479)
(-0.172622 0.0135802 -0.161298)
(-0.127415 0.00588279 -0.229549)
(-0.0441821 -0.000326979 -0.166724)
(-0.0130179 -0.00244358 0.0710128)
(-0.0497221 -0.00324177 0.12454)
(-0.0951309 -0.00226366 0.130664)
(-0.133001 -0.000304095 0.112165)
(-0.162941 0.00217652 0.0747765)
(-0.18347 0.00455589 0.0154869)
(-0.190412 0.00578148 -0.0685752)
(-0.17477 0.00480286 -0.168089)
(-0.129125 0.00206341 -0.237275)
(-0.0449403 -7.43391e-05 -0.17148)
(-0.0130179 0.00244359 0.0710128)
(-0.0497221 0.00324177 0.12454)
(-0.0951309 0.00226365 0.130664)
(-0.133001 0.000304084 0.112165)
(-0.162941 -0.00217653 0.0747765)
(-0.18347 -0.00455589 0.0154869)
(-0.190412 -0.00578148 -0.0685752)
(-0.17477 -0.00480286 -0.168089)
(-0.129125 -0.00206341 -0.237275)
(-0.0449403 7.43439e-05 -0.17148)
(-0.0126484 0.00694613 0.0708862)
(-0.0477936 0.00906206 0.123776)
(-0.0910996 0.00635959 0.129843)
(-0.127621 0.000996481 0.111962)
(-0.157243 -0.00582602 0.0757841)
(-0.178546 -0.0124678 0.0181918)
(-0.186938 -0.0160856 -0.0638478)
(-0.172622 -0.0135802 -0.161298)
(-0.127415 -0.00588279 -0.229549)
(-0.0441821 0.000326983 -0.166724)
(-0.01148 0.00987736 0.0695098)
(-0.0424575 0.0124226 0.119857)
(-0.080311 0.00880493 0.125743)
(-0.113055 0.001802 0.109823)
(-0.14125 -0.00714885 0.0774263)
(-0.163853 -0.0160837 0.0251503)
(-0.175681 -0.0213808 -0.0506305)
(-0.165417 -0.0185461 -0.142114)
(-0.122695 -0.00814727 -0.207976)
(-0.0424105 0.000725945 -0.153646)
(-0.0088221 0.0090386 0.0629445)
(-0.0314938 0.0106622 0.104978)
(-0.0586512 0.00766523 0.109831)
(-0.0831187 0.00217546 0.0981422)
(-0.106516 -0.00482126 0.074354)
(-0.128715 -0.0119952 0.0348794)
(-0.144655 -0.0165888 -0.0248654)
(-0.14211 -0.0146706 -0.100308)
(-0.107771 -0.0063365 -0.15882)
(-0.0376797 0.00100094 -0.123501)
(-0.00390249 0.00369491 0.0390044)
(-0.013077 0.00410981 0.0589572)
(-0.0232979 0.00297664 0.0605962)
(-0.0330507 0.00104482 0.0559565)
(-0.044371 -0.00135519 0.0470886)
(-0.0580982 -0.00379602 0.0314525)
(-0.0714453 -0.00532426 0.00509961)
(-0.0759313 -0.00453663 -0.0322178)
(-0.0603136 -0.00173906 -0.0666622)
(-0.0220303 0.000413283 -0.0609455)
(-0.00774248 -0.00463984 0.0571543)
(-0.0192747 -0.00467989 0.0767513)
(-0.0258984 -0.00236121 0.0738701)
(-0.031127 0.00126168 0.0651471)
(-0.0396185 0.00576635 0.0532592)
(-0.0547181 0.0106176 0.0344603)
(-0.0754383 0.0141573 0.00220311)
(-0.0913808 0.0132751 -0.0487729)
(-0.0861012 0.00692664 -0.104178)
(-0.0355402 -0.00115508 -0.112972)
(-0.014266 -0.0108845 0.0894875)
(-0.0402695 -0.0116772 0.136201)
(-0.0623839 -0.00583948 0.136189)
(-0.0785641 0.00377783 0.119117)
(-0.0943493 0.0158106 0.090799)
(-0.113421 0.0282861 0.0459311)
(-0.134053 0.0364788 -0.0242678)
(-0.143603 0.0329178 -0.123742)
(-0.127572 0.0156986 -0.220941)
(-0.0496818 -0.00358004 -0.212626)
(-0.0170396 -0.011453 0.0978412)
(-0.051106 -0.0132649 0.155238)
(-0.0831296 -0.00663484 0.157215)
(-0.105445 0.00481033 0.136626)
(-0.12263 0.0189628 0.100412)
(-0.137926 0.0327635 0.0434252)
(-0.15069 0.0403498 -0.0425595)
(-0.151026 0.0343118 -0.160382)
(-0.131575 0.0148417 -0.272224)
(-0.0510569 -0.00324259 -0.253244)
(-0.0180533 -0.00787308 0.0995684)
(-0.0558231 -0.0095253 0.160317)
(-0.0925669 -0.00476715 0.163128)
(-0.117322 0.00363243 0.141348)
(-0.134034 0.0139135 0.102283)
(-0.145896 0.023529 0.0409751)
(-0.153632 0.0280746 -0.0504771)
(-0.149895 0.0228517 -0.174951)
(-0.131349 0.00930396 -0.292475)
(-0.0518003 -0.00188487 -0.269623)
(-0.0183023 -0.00273852 0.0997616)
(-0.0573205 -0.00338148 0.161377)
(-0.0957262 -0.0016941 0.16453)
(-0.121199 0.00130961 0.14252)
(-0.137455 0.00495962 0.102725)
(-0.1478 0.0082979 0.0402073)
(-0.153736 0.00973641 -0.0529571)
(-0.149071 0.00774498 -0.179884)
(-0.131675 0.00307057 -0.299683)
(-0.0524579 -0.000570104 -0.275611)
(-0.0183023 0.00273853 0.0997616)
(-0.0573205 0.00338148 0.161377)
(-0.0957262 0.00169409 0.16453)
(-0.121199 -0.00130962 0.14252)
(-0.137455 -0.00495963 0.102725)
(-0.1478 -0.00829791 0.0402073)
(-0.153736 -0.00973641 -0.0529571)
(-0.149071 -0.00774498 -0.179884)
(-0.131675 -0.00307057 -0.299683)
(-0.0524579 0.000570111 -0.275611)
(-0.0180533 0.00787308 0.0995684)
(-0.0558231 0.0095253 0.160317)
(-0.0925669 0.00476714 0.163128)
(-0.117322 -0.00363244 0.141348)
(-0.134034 -0.0139135 0.102283)
(-0.145896 -0.023529 0.0409751)
(-0.153632 -0.0280746 -0.0504771)
(-0.149895 -0.0228517 -0.174951)
(-0.131349 -0.00930396 -0.292475)
(-0.0518003 0.00188488 -0.269623)
(-0.0170396 0.011453 0.0978412)
(-0.051106 0.0132649 0.155238)
(-0.0831296 0.00663483 0.157215)
(-0.105445 -0.00481034 0.136626)
(-0.12263 -0.0189628 0.100412)
(-0.137926 -0.0327635 0.0434253)
(-0.15069 -0.0403498 -0.0425595)
(-0.151026 -0.0343118 -0.160382)
(-0.131575 -0.0148417 -0.272224)
(-0.0510569 0.0032426 -0.253244)
(-0.014266 0.0108845 0.0894875)
(-0.0402695 0.0116772 0.136201)
(-0.0623839 0.00583948 0.136189)
(-0.0785641 -0.00377783 0.119117)
(-0.0943493 -0.0158106 0.090799)
(-0.113422 -0.0282861 0.0459311)
(-0.134053 -0.0364788 -0.0242678)
(-0.143603 -0.0329178 -0.123742)
(-0.127572 -0.0156986 -0.220941)
(-0.0496818 0.00358004 -0.212626)
(-0.00774248 0.00463984 0.0571542)
(-0.0192748 0.00467989 0.0767513)
(-0.0258984 0.00236121 0.0738701)
(-0.031127 -0.00126168 0.0651471)
(-0.0396185 -0.00576635 0.0532592)
(-0.0547182 -0.0106176 0.0344603)
(-0.0754383 -0.0141573 0.00220311)
(-0.0913808 -0.0132751 -0.0487729)
(-0.0861012 -0.00692664 -0.104178)
(-0.0355402 0.00115508 -0.112972)
(-0.0170124 -0.00644035 0.0815775)
(-0.0310799 -0.00624241 0.0912775)
(-0.0237985 -0.00267271 0.0793011)
(-0.0160796 0.00269739 0.0637462)
(-0.0143233 0.00909507 0.0482444)
(-0.0240245 0.0161684 0.0278448)
(-0.0483093 0.0220626 -0.00697176)
(-0.0769694 0.0215039 -0.0683469)
(-0.0961272 0.0108069 -0.147106)
(-0.041614 -0.00532523 -0.191814)
(-0.0271387 -0.0141602 0.120782)
(-0.0562706 -0.0145025 0.161602)
(-0.0566392 -0.00612117 0.15107)
(-0.0482219 0.00685529 0.125497)
(-0.0410353 0.0224142 0.0938181)
(-0.0420369 0.0387384 0.0499502)
(-0.0566605 0.0507769 -0.0189598)
(-0.075244 0.0470017 -0.130344)
(-0.0984488 0.0207203 -0.266703)
(-0.0366782 -0.012513 -0.320601)
(-0.0302851 -0.0140674 0.129496)
(-0.0666703 -0.0157552 0.18374)
(-0.0741041 -0.00693653 0.17656)
(-0.0671625 0.00723194 0.148695)
(-0.0559915 0.0241315 0.111115)
(-0.0473161 0.0406503 0.0579352)
(-0.0490299 0.0506716 -0.0231521)
(-0.0554354 0.0434421 -0.151506)
(-0.0810965 0.0161815 -0.308127)
(-0.0290504 -0.0105345 -0.362002)
(-0.0311094 -0.00933202 0.130979)
(-0.0702695 -0.010994 0.189406)
(-0.0809029 -0.0049675 0.183972)
(-0.0745126 0.00491456 0.156029)
(-0.0610604 0.0166352 0.116944)
(-0.0471907 0.027617 0.0608776)
(-0.0426653 0.0333477 -0.0242059)
(-0.0446351 0.0271843 -0.158791)
(-0.0743098 0.00932731 -0.323187)
(-0.0276293 -0.0059956 -0.377469)
(-0.0312027 -0.00318837 0.131045)
(-0.0710847 -0.003849 0.190482)
(-0.0826617 -0.00176285 0.185728)
(-0.0763027 0.00168736 0.158043)
(-0.0619005 0.00575539 0.118776)
(-0.0461521 0.00948797 0.061993)
(-0.0397537 0.0112752 -0.0244181)
(-0.0410761 0.00897129 -0.161449)
(-0.0731904 0.00298958 -0.328812)
(-0.0279801 -0.00182795 -0.383208)
(-0.0312027 0.00318837 0.131045)
(-0.0710847 0.003849 0.190482)
(-0.0826617 0.00176284 0.185728)
(-0.0763027 -0.00168737 0.158043)
(-0.0619005 -0.0057554 0.118776)
(-0.0461521 -0.00948797 0.061993)
(-0.0397537 -0.0112752 -0.0244181)
(-0.0410761 -0.00897129 -0.161449)
(-0.0731904 -0.00298957 -0.328812)
(-0.0279801 0.00182796 -0.383208)
(-0.0311094 0.00933202 0.130979)
(-0.0702695 0.010994 0.189406)
(-0.0809029 0.00496749 0.183972)
(-0.0745126 -0.00491457 0.156029)
(-0.0610604 -0.0166352 0.116944)
(-0.0471907 -0.027617 0.0608776)
(-0.0426653 -0.0333477 -0.0242059)
(-0.0446351 -0.0271843 -0.158791)
(-0.0743098 -0.0093273 -0.323187)
(-0.0276293 0.00599561 -0.377469)
(-0.0302851 0.0140674 0.129496)
(-0.0666703 0.0157552 0.18374)
(-0.0741041 0.00693652 0.17656)
(-0.0671625 -0.00723195 0.148695)
(-0.0559915 -0.0241315 0.111115)
(-0.0473161 -0.0406503 0.0579352)
(-0.0490299 -0.0506716 -0.0231521)
(-0.0554354 -0.0434421 -0.151506)
(-0.0810965 -0.0161815 -0.308127)
(-0.0290504 0.0105345 -0.362002)
(-0.0271387 0.0141602 0.120782)
(-0.0562706 0.0145025 0.161602)
(-0.0566392 0.00612116 0.15107)
(-0.0482219 -0.00685529 0.125497)
(-0.0410354 -0.0224142 0.0938181)
(-0.0420369 -0.0387384 0.0499502)
(-0.0566605 -0.0507769 -0.0189598)
(-0.075244 -0.0470017 -0.130344)
(-0.0984488 -0.0207203 -0.266703)
(-0.0366782 0.012513 -0.320601)
(-0.0170124 0.00644035 0.0815775)
(-0.0310799 0.00624241 0.0912775)
(-0.0237985 0.0026727 0.0793011)
(-0.0160796 -0.0026974 0.0637462)
(-0.0143233 -0.00909507 0.0482444)
(-0.0240245 -0.0161684 0.0278448)
(-0.0483093 -0.0220626 -0.00697176)
(-0.0769694 -0.0215039 -0.0683469)
(-0.0961272 -0.0108069 -0.147106)
(-0.041614 0.00532523 -0.191814)
(-0.0240386 -0.0110503 0.15107)
(-0.0218621 -0.0111156 0.0986267)
(0.0239842 -0.00664897 0.0631905)
(0.0563904 -0.000399658 0.0421595)
(0.0767815 0.00649302 0.0263854)
(0.0801671 0.0141092 0.00928)
(0.0596939 0.0215152 -0.0187756)
(0.0238213 0.0213209 -0.0759721)
(-0.0426757 0.00637913 -0.171143)
(-0.00698516 -0.0168768 -0.257758)
(-0.0432209 -0.0221871 0.210318)
(-0.0452757 -0.0239707 0.168123)
(0.0156189 -0.0151284 0.12524)
(0.0686887 -0.00200813 0.0935498)
(0.112035 0.0131438 0.0654229)
(0.140479 0.0293677 0.0333475)
(0.140325 0.0443842 -0.0148216)
(0.123384 0.0438694 -0.104898)
(0.0354692 0.0127848 -0.25369)
(0.0421383 -0.0298656 -0.367488)
(-0.0485707 -0.0194512 0.220099)
(-0.0551376 -0.0236092 0.186976)
(0.00462773 -0.0159406 0.146664)
(0.061962 -0.00339852 0.114004)
(0.113767 0.0117034 0.082598)
(0.155589 0.0272344 0.04505)
(0.169246 0.0398425 -0.0100276)
(0.166658 0.0370429 -0.109048)
(0.0745898 0.008662 -0.273613)
(0.0610429 -0.0207393 -0.393691)
(-0.0493824 -0.0120587 0.220795)
(-0.0573906 -0.0155549 0.190433)
(0.0011466 -0.0108344 0.151902)
(0.0593231 -0.00271156 0.119957)
(0.113722 0.00716849 0.088188)
(0.160342 0.0171734 0.0490157)
(0.178649 0.0246326 -0.00863399)
(0.180209 0.0221225 -0.110898)
(0.0841517 0.00537366 -0.280758)
(0.0639868 -0.0106135 -0.402706)
(-0.0492538 -0.00399057 0.220412)
(-0.057364 -0.00529851 0.190569)
(0.000934505 -0.00373857 0.152693)
(0.0594107 -0.00100042 0.121232)
(0.114542 0.00233807 0.0896288)
(0.162464 0.00569601 0.0501128)
(0.181773 0.00809956 -0.00846869)
(0.18362 0.00719061 -0.112127)
(0.0851188 0.0018366 -0.283837)
(0.0635997 -0.00309631 -0.406033)
(-0.0492538 0.00399057 0.220412)