/*--------------------------------*- C++ -*----------------------------------*\
  =========                 |
  \\      /  F ield         | OpenFOAM: The Open Source CFD Toolbox
   \\    /   O peration     | Website:  https://openfoam.org
    \\  /    A nd           | Version:  9
     \\/     M anipulation  |
\*---------------------------------------------------------------------------*/
FoamFile
{
    format      ascii;
    class       volScalarField;
    location    "0.13";
    object      p;
}
// * * * * * * * * * * * * * * * * * * * * * * * * * * * * * * * * * * * * * //

dimensions      [0 2 -2 0 0 0 0];

internalField   nonuniform List<scalar> 
1000
(
3.79888e-08
-0.000244726
0.000666864
0.0024894
0.0050807
0.00816891
0.0113101
0.0139336
0.0154615
0.0152548
0.000145917
-0.00035592
0.000523054
0.00240441
0.00510974
0.00834173
0.0116412
0.0143813
0.0158953
0.0153297
0.000398104
-0.000241018
0.000612605
0.00250735
0.00526504
0.00858649
0.0119827
0.0147825
0.0162667
0.0154731
0.000611759
-9.68578e-05
0.000733299
0.00262779
0.00540876
0.00877253
0.0122158
0.0150414
0.0165046
0.0155957
0.000730409
-3.58136e-06
0.000814516
0.00270453
0.00549084
0.00886865
0.0123285
0.015162
0.0166157
0.0156638
0.000730366
-3.61657e-06
0.000814491
0.00270451
0.00549083
0.00886865
0.0123285
0.015162
0.0166157
0.0156638
0.000611615
-9.6971e-05
0.000733219
0.00262775
0.00540874
0.00877252
0.0122158
0.0150414
0.0165046
0.0155958
0.000397805
-0.000241236
0.000612459
0.00250726
0.00526501
0.00858649
0.0119827
0.0147825
0.0162668
0.0154731
0.000145386
-0.000356282
0.000522836
0.00240429
0.00510969
0.00834172
0.0116412
0.0143814
0.0158954
0.0153298
-6.6279e-07
-0.000245247
0.000666564
0.00248925
0.00508063
0.00816889
0.0113101
0.0139337
0.0154616
0.0152549
0.000130844
-0.000169892
0.000717567
0.00246333
0.00495129
0.00794503
0.0110549
0.0137167
0.0153208
0.0150287
0.0005841
-7.18345e-06
0.000840851
0.00257638
0.00507381
0.00810076
0.0112683
0.0139717
0.0155335
0.0147966
0.00103678
0.000273981
0.00107965
0.00279028
0.00528555
0.00833935
0.0115453
0.0142705
0.0157904
0.0147996
0.00135045
0.000502704
0.00127613
0.00296514
0.00545445
0.00852023
0.011747
0.0144817
0.0159744
0.0148511
0.0015066
0.000627205
0.0013844
0.00306099
0.00554502
0.00861377
0.0118482
0.0145856
0.0160669
0.0148949
0.00150657
0.000627175
0.00138438
0.00306097
0.00554502
0.00861377
0.0118482
0.0145857
0.0160669
0.0148949
0.00135032
0.000502607
0.00127606
0.0029651
0.00545443
0.00852023
0.011747
0.0144817
0.0159745
0.0148512
0.00103655
0.000273802
0.00107953
0.00279022
0.00528552
0.00833935
0.0115453
0.0142705
0.0157904
0.0147996
0.000583718
-7.46525e-06
0.000840671
0.00257629
0.00507377
0.00810076
0.0112683
0.0139718
0.0155336
0.0147966
0.000130302
-0.00017027
0.000717336
0.00246321
0.00495123
0.00794501
0.0110549
0.0137167
0.0153209
0.0150288
-0.00117057
-0.00157767
-0.000619722
0.00126746
0.00399381
0.00736848
0.0110072
0.0142923
0.0164076
0.016101
-0.000487786
-0.00127904
-0.000373551
0.00148681
0.00420465
0.00760342
0.011302
0.0146364
0.0166889
0.0157457
0.000165867
-0.000852819
-8.97454e-06
0.00180123
0.00449096
0.00789812
0.0116326
0.0149935
0.0169929
0.0156811
0.000602277
-0.000527867
0.000268547
0.00203702
0.00470019
0.00810428
0.0118551
0.0152275
0.0171965
0.0157164
0.000812283
-0.000358913
0.000413248
0.00215888
0.0048062
0.00820512
0.0119602
0.0153358
0.0172927
0.0157476
0.000812251
-0.000358939
0.00041323
0.00215887
0.00480619
0.00820511
0.0119602
0.0153358
0.0172927
0.0157476
0.000602177
-0.000527949
0.000268489
0.00203698
0.00470017
0.00810427
0.0118551
0.0152275
0.0171965
0.0157164
0.000165689
-0.000852963
-9.0746e-06
0.00180117
0.00449092
0.0078981
0.0116326
0.0149935
0.0169929
0.0156811
-0.000488049
-0.00127924
-0.000373694
0.00148672
0.00420461
0.0076034
0.011302
0.0146364
0.0166889
0.0157457
-0.00117092
-0.00157793
-0.000619903
0.00126735
0.00399375
0.00736844
0.0110071
0.0142923
0.0164076
0.016101
-0.00408155
-0.00456331
-0.00341448
-0.00120171
0.00202356
0.00614736
0.0108357
0.0154212
0.0186935
0.0187131
-0.00312581
-0.00410893
-0.00302772
-0.000852253
0.00235924
0.0065092
0.0112916
0.015971
0.0191675
0.0182869
-0.00221993
-0.00350019
-0.00251083
-0.000421255
0.0027301
0.00686071
0.0116926
0.0164285
0.0195801
0.0182105
-0.00162375
-0.00305043
-0.00213433
-0.000117497
0.00297831
0.00708512
0.0119293
0.0166922
0.0198244
0.018241
-0.00134166
-0.00282216
-0.0019443
3.24862e-05
0.00309543
0.00718295
0.0120277
0.0168004
0.0199281
0.01827
-0.00134169
-0.00282218
-0.00194432
3.2474e-05
0.00309542
0.00718294
0.0120277
0.0168004
0.0199281
0.01827
-0.00162383
-0.0030505
-0.00213438
-0.000117534
0.00297828
0.00708508
0.0119293
0.0166922
0.0198244
0.0182409
-0.00222006
-0.0035003
-0.00251091
-0.000421316
0.00273005
0.00686066
0.0116926
0.0164284
0.01958
0.0182105
-0.003126
-0.00410908
-0.00302784
-0.000852334
0.00235917
0.00650913
0.0112916
0.0159709
0.0191674
0.0182869
-0.00408177
-0.00456349
-0.00341462
-0.00120181
0.00202348
0.00614728
0.0108357
0.0154212
0.0186934
0.0187131
-0.00919869
-0.00963082
-0.00811524
-0.00539538
-0.00145336
0.0037609
0.0100833
0.0169179
0.0225014
0.0238508
-0.00785594
-0.00896058
-0.00755079
-0.00490332
-0.000998535
0.00424824
0.0106819
0.0177124
0.023269
0.0235216
-0.00661409
-0.00811792
-0.00686305
-0.00437692
-0.000604039
0.00457612
0.0110474
0.0182076
0.0237986
0.0235446
-0.00581146
-0.00751235
-0.00638025
-0.00402677
-0.000368637
0.00473525
0.0112051
0.0184343
0.024065
0.0236077
-0.00543839
-0.00721122
-0.00614304
-0.0038617
-0.000268618
0.00479147
0.0112491
0.0185045
0.0241628
0.0236507
-0.00543841
-0.00721124
-0.00614305
-0.00386171
-0.000268634
0.00479145
0.0112491
0.0185045
0.0241628
0.0236507
-0.00581151
-0.0075124
-0.00638029
-0.00402681
-0.000368685
0.0047352
0.0112051
0.0184342
0.024065
0.0236077
-0.00661418
-0.008118
-0.00686312
-0.00437698
-0.000604112
0.00457604
0.0110474
0.0182076
0.0237986
0.0235446
-0.00785606
-0.00896069
-0.00755088
-0.0049034
-0.000998625
0.00424815
0.0106818
0.0177123
0.0232689
0.0235216
-0.00919883
-0.00963095
-0.00811534
-0.00539547
-0.00145346
0.0037608
0.0100832
0.0169179
0.0225014
0.0238508
-0.0175061
-0.0174881
-0.0152975
-0.0118822
-0.00710211
-0.000600673
0.00792328
0.0183029
0.0283067
0.0335453
-0.0155798
-0.0165315
-0.0145764
-0.0113658
-0.00674698
-0.0003383
0.00821393
0.0189434
0.0292137
0.0337508
-0.0138757
-0.0153975
-0.0137431
-0.0108725
-0.0065695
-0.000380066
0.00808991
0.019047
0.0296175
0.0340124
-0.0128033
-0.0146013
-0.0131686
-0.0105541
-0.0064964
-0.000494086
0.00789589
0.0189791
0.0297635
0.0341796
-0.0123159
-0.0142125
-0.0128906
-0.0104079
-0.00647883
-0.000579038
0.00776722
0.0189048
0.0297955
0.0342499
-0.0123159
-0.0142125
-0.0128906
-0.0104079
-0.00647885
-0.000579053
0.00776721
0.0189048
0.0297955
0.0342498
-0.0128033
-0.0146013
-0.0131686
-0.0105542
-0.00649645
-0.000494129
0.00789587
0.0189791
0.0297634
0.0341795
-0.0138758
-0.0153975
-0.0137432
-0.0108726
-0.00656958
-0.000380138
0.00808987
0.019047
0.0296175
0.0340123
-0.0155799
-0.0165315
-0.0145764
-0.0113659
-0.00674707
-0.000338393
0.00821388
0.0189434
0.0292137
0.0337508
-0.0175062
-0.0174882
-0.0152975
-0.0118822
-0.00710222
-0.000600772
0.00792322
0.0183029
0.0283067
0.0335453
-0.0308595
-0.0290244
-0.0254236
-0.020991
-0.0153157
-0.00760438
0.00334163
0.0186616
0.0363022
0.0512719
-0.0280021
-0.0276801
-0.0247163
-0.020866
-0.015722
-0.00855981
0.00186903
0.0173678
0.0357896
0.0516553
-0.025627
-0.0261649
-0.0238205
-0.0206768
-0.0162326
-0.00973033
0.000192751
0.0158515
0.0350925
0.0519166
-0.0241903
-0.0251216
-0.0231794
-0.0205139
-0.0165639
-0.010524
-0.0009212
0.0148271
0.0345806
0.0520462
-0.0235558
-0.0246196
-0.0228636
-0.0204284
-0.0167195
-0.0109062
-0.00144893
0.0143434
0.0343375
0.0520805
-0.0235558
-0.0246196
-0.0228636
-0.0204284
-0.0167195
-0.0109062
-0.00144893
0.0143434
0.0343374
0.0520805
-0.0241903
-0.0251216
-0.0231795
-0.0205139
-0.0165639
-0.0105241
-0.000921218
0.0148271
0.0345806
0.0520461
-0.025627
-0.0261649
-0.0238206
-0.0206768
-0.0162327
-0.00973039
0.000192717
0.0158515
0.0350924
0.0519166
-0.0280021
-0.0276801
-0.0247163
-0.0208661
-0.0157221
-0.00855989
0.00186898
0.0173677
0.0357896
0.0516553
-0.0308595
-0.0290244
-0.0254236
-0.0209911
-0.0153158
-0.00760446
0.00334159
0.0186615
0.0363022
0.0512719
-0.0541849
-0.045169
-0.0383736
-0.0320957
-0.025276
-0.0164893
-0.00342869
0.0176271
0.0457965
0.0823689
-0.0499479
-0.0432918
-0.0379112
-0.0329541
-0.0272921
-0.0199005
-0.00865834
0.0115642
0.0405999
0.0821401
-0.0465733
-0.0411316
-0.0369057
-0.0332673
-0.0288907
-0.0228399
-0.0129353
0.00698499
0.0373994
0.0822114
-0.0446124
-0.039679
-0.0361142
-0.0332786
-0.0297592
-0.0245821
-0.0154447
0.00437268
0.0356649
0.0823569
-0.0437713
-0.0389937
-0.0357104
-0.0332379
-0.0301177
-0.0253477
-0.016544
0.00325242
0.0349602
0.0823849
-0.0437713
-0.0389937
-0.0357104
-0.033238
-0.0301178
-0.0253477
-0.016544
0.0032524
0.0349602
0.0823848
-0.0446124
-0.039679
-0.0361142
-0.0332787
-0.0297593
-0.0245822
-0.0154447
0.00437264
0.0356649
0.0823569
-0.0465733
-0.0411316
-0.0369057
-0.0332673
-0.0288908
-0.02284
-0.0129353
0.00698495
0.0373994
0.0822114
-0.0499479
-0.0432918
-0.0379112
-0.0329542
-0.0272922
-0.0199006
-0.00865838
0.0115642
0.0405999
0.0821401
-0.0541848
-0.045169
-0.0383737
-0.0320958
-0.0252761
-0.0164893
-0.00342872
0.0176271
0.0457965
0.0823689
-0.0890768
-0.0637908
-0.052868
-0.0431426
-0.0344144
-0.024411
-0.00959944
0.0197833
0.0602763
0.151444
-0.0810454
-0.0606061
-0.0528296
-0.0453453
-0.0382436
-0.0301595
-0.0182383
0.00979598
0.0512403
0.159885
-0.0758676
-0.0573307
-0.0515172
-0.0459779
-0.040693
-0.0343837
-0.024412
0.00365403
0.0490884
0.164311
-0.0731772
-0.0552252
-0.0504253
-0.0460111
-0.0418952
-0.0367314
-0.0278473
0.000434271
0.0477583
0.16678
-0.0720775
-0.0542566
-0.0498673
-0.0459445
-0.0423669
-0.0377346
-0.0293379
-0.00095054
0.0471125
0.167733
-0.0720775
-0.0542566
-0.0498673
-0.0459445
-0.0423669
-0.0377346
-0.0293379
-0.000950555
0.0471125
0.167733
-0.0731772
-0.0552252
-0.0504254
-0.0460111
-0.0418952
-0.0367314
-0.0278473
0.000434241
0.0477583
0.16678
-0.0758675
-0.0573306
-0.0515172
-0.045978
-0.0406931
-0.0343837
-0.024412
0.00365399
0.0490884
0.164311
-0.0810453
-0.0606061
-0.0528296
-0.0453454
-0.0382437
-0.0301595
-0.0182383
0.00979595
0.0512403
0.159885
-0.0890767
-0.0637908
-0.052868
-0.0431427
-0.0344144
-0.024411
-0.00959946
0.0197833
0.0602762
0.151444
-0.201301
-0.0786197
-0.0529403
-0.0407885
-0.0309316
-0.019169
0.0004554
0.0437706
0.123285
0.320861
-0.189683
-0.06782
-0.0477526
-0.0396711
-0.0326104
-0.0231694
-0.00616093
0.0388371
0.129595
0.349309
-0.182497
-0.0614762
-0.0440236
-0.0385546
-0.0336893
-0.0260631
-0.0103284
0.0364103
0.134388
0.364783
-0.178776
-0.0581097
-0.0417727
-0.0377317
-0.0342208
-0.0276817
-0.0125722
0.034966
0.136141
0.371488
-0.177248
-0.0566869
-0.0407635
-0.0373272
-0.0344278
-0.0283861
-0.0135722
0.0342157
0.136554
0.373778
-0.177248
-0.0566869
-0.0407635
-0.0373272
-0.0344278
-0.0283861
-0.0135722
0.0342157
0.136554
0.373778
-0.178776
-0.0581097
-0.0417727
-0.0377318
-0.0342208
-0.0276817
-0.0125722
0.0349659
0.136141
0.371488
-0.182497
-0.0614762
-0.0440236
-0.0385546
-0.0336894
-0.0260631
-0.0103284
0.0364103
0.134388
0.364783
-0.189683
-0.0678199
-0.0477526
-0.0396712
-0.0326104
-0.0231694
-0.00616097
0.038837
0.129595
0.349309
-0.201301
-0.0786197
-0.0529403
-0.0407886
-0.0309317
-0.019169
0.000455381
0.0437705
0.123285
0.32086
)
;

boundaryField
{
    top
    {
        type            zeroGradient;
    }
    others
    {
        type            zeroGradient;
    }
}


// ************************************************************************* //
