/*--------------------------------*- C++ -*----------------------------------*\
  =========                 |
  \\      /  F ield         | OpenFOAM: The Open Source CFD Toolbox
   \\    /   O peration     | Website:  https://openfoam.org
    \\  /    A nd           | Version:  9
     \\/     M anipulation  |
\*---------------------------------------------------------------------------*/
FoamFile
{
    format      ascii;
    class       surfaceScalarField;
    location    "0.13";
    object      phi;
}
// * * * * * * * * * * * * * * * * * * * * * * * * * * * * * * * * * * * * * //

dimensions      [0 3 -1 0 0 0 0];

internalField   nonuniform List<scalar> 
2700
(
-1.40114e-07
-3.33435e-08
1.73457e-07
-4.53675e-07
-1.00817e-08
3.23643e-07
-7.77734e-07
-2.53102e-09
3.26589e-07
-1.03273e-06
-6.65388e-09
2.61654e-07
-1.17095e-06
-2.12066e-08
1.59422e-07
-1.15343e-06
-4.50495e-08
2.75287e-08
-9.57018e-07
-6.93906e-08
-1.2702e-07
-6.00456e-07
-8.40124e-08
-2.7255e-07
-1.95415e-07
-7.27758e-08
-3.32265e-07
-1.53187e-08
-1.80096e-07
-2.61179e-07
-5.18937e-08
2.79729e-07
-8.07666e-07
-3.8467e-08
5.74872e-07
-1.36387e-06
-2.81164e-08
5.81789e-07
-1.78888e-06
-2.96589e-08
4.48015e-07
-2.00678e-06
-4.21309e-08
2.3883e-07
-1.96261e-06
-6.24901e-08
-2.67323e-08
-1.62108e-06
-8.36566e-08
-3.27263e-07
-1.01576e-06
-9.43457e-08
-5.94994e-07
-3.35869e-07
-7.98398e-08
-6.72822e-07
-2.46294e-08
-3.26559e-07
-2.95494e-07
-4.59564e-08
2.89556e-07
-9.19751e-07
-4.49482e-08
6.30739e-07
-1.55262e-06
-3.74631e-08
6.42214e-07
-2.03374e-06
-3.54132e-08
4.86875e-07
-2.27795e-06
-4.03356e-08
2.42419e-07
-2.22258e-06
-5.05616e-08
-6.73064e-08
-1.82915e-06
-6.14022e-08
-4.15678e-07
-1.1369e-06
-6.57447e-08
-7.2085e-07
-3.6662e-07
-5.53437e-08
-7.94779e-07
-2.18278e-08
-3.69422e-07
-2.9904e-07
-2.58575e-08
2.78941e-07
-9.44857e-07
-2.82243e-08
6.29093e-07
-1.60176e-06
-2.44932e-08
6.43933e-07
-2.10118e-06
-2.23651e-08
4.86376e-07
-2.35434e-06
-2.33233e-08
2.36146e-07
-2.29576e-06
-2.67606e-08
-8.23829e-08
-1.88511e-06
-3.06025e-08
-4.41453e-07
-1.16408e-06
-3.17344e-08
-7.55037e-07
-3.67005e-07
-2.67815e-08
-8.25637e-07
-1.21991e-08
-3.76634e-07
-2.97371e-07
3.24492e-12
2.71511e-07
-9.47695e-07
1.52334e-12
6.22098e-07
-1.61094e-06
1.03785e-12
6.38751e-07
-2.1158e-06
8.3845e-13
4.82498e-07
-2.37203e-06
6.1547e-13
2.329e-07
-2.31289e-06
4.19813e-13
-8.58942e-08
-1.8973e-06
2.9365e-13
-4.46194e-07
-1.16801e-06
2.51354e-13
-7.61027e-07
-3.64238e-07
2.29275e-13
-8.30555e-07
-2.31779e-13
-3.76437e-07
-2.97372e-07
2.58643e-08
2.71511e-07
-9.47695e-07
2.82273e-08
6.22098e-07
-1.61094e-06
2.44953e-08
6.38751e-07
-2.1158e-06
2.23669e-08
4.82497e-07
-2.37203e-06
2.33246e-08
2.329e-07
-2.31289e-06
2.67615e-08
-8.58943e-08
-1.8973e-06
3.06031e-08
-4.46194e-07
-1.16801e-06
3.17349e-08
-7.61027e-07
-3.64238e-07
2.6782e-08
-8.30555e-07
1.21986e-08
-3.76437e-07
-2.99041e-07
4.59637e-08
2.78941e-07
-9.44858e-07
4.49506e-08
6.29094e-07
-1.60176e-06
3.74653e-08
6.43933e-07
-2.10118e-06
3.54151e-08
4.86376e-07
-2.35434e-06
4.03371e-08
2.36145e-07
-2.29576e-06
5.05626e-08
-8.23834e-08
-1.88511e-06
6.14029e-08
-4.41453e-07
-1.16408e-06
6.57453e-08
-7.55038e-07
-3.67005e-07
5.53443e-08
-8.25637e-07
2.18273e-08
-3.76634e-07
-2.95494e-07
5.19014e-08
2.89557e-07
-9.19752e-07
3.84668e-08
6.30742e-07
-1.55262e-06
2.81182e-08
6.42215e-07
-2.03374e-06
2.96607e-08
4.86875e-07
-2.27795e-06
4.21324e-08
2.42419e-07
-2.22258e-06
6.24912e-08
-6.7307e-08
-1.82915e-06
8.36573e-08
-4.15679e-07
-1.1369e-06
9.43464e-08
-7.20851e-07
-3.6662e-07
7.98407e-08
-7.94779e-07
2.46293e-08
-3.69422e-07
-2.61176e-07
3.33442e-08
2.79734e-07
-8.07666e-07
1.00781e-08
5.74878e-07
-1.36387e-06
2.5318e-09
5.81792e-07
-1.78888e-06
6.65508e-09
4.48016e-07
-2.00679e-06
2.12078e-08
2.3883e-07
-1.96261e-06
4.50505e-08
-2.6733e-08
-1.62108e-06
6.93913e-08
-3.27264e-07
-1.01575e-06
8.40131e-08
-5.94995e-07
-3.35869e-07
7.27768e-08
-6.72823e-07
1.53192e-08
-3.26559e-07
-1.40114e-07
1.73458e-07
-4.53683e-07
3.23647e-07
-7.7774e-07
3.26589e-07
-1.03274e-06
2.61654e-07
-1.17095e-06
1.59422e-07
-1.15343e-06
2.75284e-08
-9.57019e-07
-1.2702e-07
-6.00457e-07
-2.7255e-07
-1.95415e-07
-3.32265e-07
-1.80096e-07
-3.00687e-07
-9.81242e-08
5.72268e-07
-8.50311e-07
-7.8838e-08
9.52105e-07
-1.39876e-06
-6.09705e-08
9.36014e-07
-1.82333e-06
-5.2988e-08
7.39212e-07
-2.05009e-06
-5.47238e-08
4.409e-07
-2.02337e-06
-6.49953e-08
6.58064e-08
-1.70073e-06
-7.86272e-08
-3.7103e-07
-1.10659e-06
-8.32408e-08
-7.83454e-07
-4.05525e-07
-5.83922e-08
-9.74935e-07
1.89688e-08
-6.0459e-07
-6.15363e-07
-1.20808e-07
9.17776e-07
-1.65554e-06
-1.18403e-07
1.65462e-06
-2.66865e-06
-9.7495e-08
1.63142e-06
-3.42857e-06
-8.38982e-08
1.23885e-06
-3.80882e-06
-8.18836e-08
6.46234e-07
-3.72323e-06
-9.05968e-08
-8.67179e-08
-3.11179e-06
-1.02479e-07
-9.14851e-07
-2.02715e-06
-1.04003e-07
-1.65887e-06
-7.61787e-07
-7.51911e-08
-1.92139e-06
2.28556e-09
-1.07166e-06
-7.19352e-07
-9.28505e-08
9.80952e-07
-1.93439e-06
-1.03053e-07
1.83042e-06
-3.11122e-06
-8.79927e-08
1.80955e-06
-3.98598e-06
-7.50644e-08
1.35279e-06
-4.41518e-06
-7.01958e-08
6.59934e-07
-4.30246e-06
-7.30974e-08
-1.9752e-07
-3.5841e-06
-7.85512e-08
-1.15797e-06
-2.32343e-06
-7.7285e-08
-2.00824e-06
-8.64468e-07
-5.77391e-08
-2.2712e-06
-1.07535e-08
-1.22085e-06
-7.38907e-07
-4.83223e-08
9.73321e-07
-2.0032e-06
-5.74181e-08
1.84775e-06
-3.22946e-06
-5.00232e-08
1.83223e-06
-4.13999e-06
-4.24165e-08
1.36425e-06
-4.58522e-06
-3.85632e-08
6.49743e-07
-4.4648e-06
-3.8528e-08
-2.37363e-07
-3.7128e-06
-3.99278e-08
-1.23208e-06
-2.39651e-06
-3.85088e-08
-2.1101e-06
-8.80699e-07
-2.95314e-08
-2.36966e-06
-9.13763e-09
-1.25895e-06
-7.38749e-07
1.70704e-12
9.61936e-07
-2.01336e-06
-1.06912e-12
1.83929e-06
-3.25203e-06
-1.02822e-12
1.8274e-06
-4.17248e-06
-2.98405e-13
1.36054e-06
-4.62291e-06
4.95286e-14
6.44765e-07
-4.50129e-06
1.98763e-13
-2.46043e-07
-3.7405e-06
3.16144e-13
-1.24691e-06
-2.40931e-06
5.59601e-13
-2.13073e-06
-8.79797e-07
7.65203e-13
-2.3896e-06
3.74852e-13
-1.26537e-06
-7.38749e-07
4.83255e-08
9.61936e-07
-2.01336e-06
5.74156e-08
1.83929e-06
-3.25203e-06
5.0021e-08
1.8274e-06
-4.17248e-06
4.24159e-08
1.36054e-06
-4.62291e-06
3.85633e-08
6.44764e-07
-4.50129e-06
3.85285e-08
-2.46043e-07
-3.7405e-06
3.99285e-08
-1.24691e-06
-2.40931e-06
3.851e-08
-2.13073e-06
-8.79797e-07
2.9533e-08
-2.3896e-06
9.13832e-09
-1.26537e-06
-7.38907e-07
9.28531e-08
9.73321e-07
-2.00319e-06
1.03049e-07
1.84775e-06
-3.22946e-06
8.79903e-08
1.83223e-06
-4.13998e-06
7.50639e-08
1.36425e-06
-4.58521e-06
7.01961e-08
6.49743e-07
-4.4648e-06
7.3098e-08
-2.37364e-07
-3.7128e-06
7.8552e-08
-1.23208e-06
-2.39651e-06
7.72864e-08
-2.1101e-06
-8.80698e-07
5.77409e-08
-2.36966e-06
1.07542e-08
-1.25895e-06
-7.1935e-07
1.20808e-07
9.80952e-07
-1.93438e-06
1.18398e-07
1.83043e-06
-3.11122e-06
9.74925e-08
1.80955e-06
-3.98597e-06
8.3898e-08
1.35279e-06
-4.41518e-06
8.18843e-08
6.59934e-07
-4.30246e-06
9.05976e-08
-1.97521e-07
-3.5841e-06
1.0248e-07
-1.15797e-06
-2.32343e-06
1.04005e-07
-2.00824e-06
-8.64467e-07
7.51933e-08
-2.2712e-06
-2.28476e-09
-1.22085e-06
-6.15357e-07
9.81206e-08
9.17778e-07
-1.65554e-06
7.88332e-08
1.65462e-06
-2.66865e-06
6.09693e-08
1.63142e-06
-3.42857e-06
5.29886e-08
1.23885e-06
-3.80882e-06
5.47249e-08
6.46234e-07
-3.72323e-06
6.49964e-08
-8.67188e-08
-3.11179e-06
7.86283e-08
-9.14851e-07
-2.02715e-06
8.32424e-08
-1.65887e-06
-7.61785e-07
5.83944e-08
-1.92139e-06
-1.89678e-08
-1.07166e-06
-3.00683e-07
5.72262e-07
-8.5031e-07
9.52107e-07
-1.39877e-06
9.36014e-07
-1.82334e-06
7.39212e-07
-2.05009e-06
4.409e-07
-2.02337e-06
6.58066e-08
-1.70073e-06
-3.71029e-07
-1.10659e-06
-7.83453e-07
-4.05524e-07
-9.74934e-07
-6.04587e-07
-4.05057e-07
-1.52944e-07
1.13027e-06
-1.10987e-06
-1.37791e-07
1.7947e-06
-1.80055e-06
-1.12257e-07
1.73896e-06
-2.34112e-06
-9.30714e-08
1.37285e-06
-2.65275e-06
-8.38172e-08
8.36351e-07
-2.66392e-06
-8.6075e-08
1.63051e-07
-2.30384e-06
-9.59974e-08
-6.35109e-07
-1.56109e-06
-9.79029e-08
-1.42831e-06
-6.10492e-07
-6.34939e-08
-1.86204e-06
3.91398e-08
-1.25422e-06
-8.50807e-07
-1.83097e-07
1.79874e-06
-2.22051e-06
-1.90446e-07
3.07698e-06
-3.52875e-06
-1.59021e-07
2.98642e-06
-4.51691e-06
-1.30135e-07
2.26407e-06
-5.04773e-06
-1.13464e-07
1.20671e-06
-5.01075e-06
-1.113e-07
-9.84728e-08
-4.29785e-06
-1.17317e-07
-1.60643e-06
-2.90782e-06
-1.1522e-07
-3.03159e-06
-1.15923e-06
-7.75916e-08
-3.65588e-06
1.85787e-08
-2.21033e-06
-1.0027e-06
-1.36195e-07
1.93675e-06
-2.61452e-06
-1.56176e-07
3.40797e-06
-4.14486e-06
-1.32691e-07
3.31356e-06
-5.28901e-06
-1.07108e-07
2.47392e-06
-5.89104e-06
-9.01141e-08
1.23861e-06
-5.82782e-06
-8.38014e-08
-2.88234e-07
-4.98145e-06
-8.38956e-08
-2.03776e-06
-3.35487e-06
-7.98608e-08
-3.67018e-06
-1.32536e-06
-5.61855e-08
-4.32211e-06
-4.68637e-10
-2.52716e-06
-1.03235e-06
-6.90886e-08
1.93856e-06
-2.71182e-06
-8.37959e-08
3.45484e-06
-4.3084e-06
-7.197e-08
3.36809e-06
-5.50076e-06
-5.7526e-08
2.50703e-06
-6.12633e-06
-4.70807e-08
1.23228e-06
-6.05703e-06
-4.19425e-08
-3.48526e-07
-5.17016e-06
-4.03371e-08
-2.16251e-06
-3.47005e-06
-3.75726e-08
-3.8525e-06
-1.35803e-06
-2.73388e-08
-4.51053e-06
-4.85361e-09
-2.61259e-06
-1.0325e-06
1.32806e-12
1.92534e-06
-2.72548e-06
-1.21681e-12
3.44848e-06
-4.33808e-06
-9.96777e-13
3.36803e-06
-5.54352e-06
-1.71111e-13
2.50845e-06
-6.17672e-06
9.90771e-14
1.23088e-06
-6.10752e-06
1.12966e-13
-3.57185e-07
-5.2111e-06
1.61848e-13
-2.18366e-06
-3.49217e-06
2.57698e-13
-3.88724e-06
-1.36012e-06
2.20355e-13
-4.54898e-06
2.85964e-13
-2.63035e-06
-1.0325e-06
6.90913e-08
1.92534e-06
-2.72548e-06
8.37932e-08
3.44848e-06
-4.33808e-06
7.19679e-08
3.36803e-06
-5.54352e-06
5.75256e-08
2.50845e-06
-6.17672e-06
4.70808e-08
1.23088e-06
-6.10752e-06
4.19427e-08
-3.57185e-07
-5.2111e-06
4.03374e-08
-2.18366e-06
-3.49217e-06
3.75731e-08
-3.88724e-06
-1.36012e-06
2.73393e-08
-4.54898e-06
4.85409e-09
-2.63035e-06
-1.03235e-06
1.36198e-07
1.93856e-06
-2.71182e-06
1.56173e-07
3.45484e-06
-4.3084e-06
1.32689e-07
3.36809e-06
-5.50076e-06
1.07107e-07
2.50703e-06
-6.12633e-06
9.01142e-08
1.23228e-06
-6.05703e-06
8.38014e-08
-3.48527e-07
-5.17016e-06
8.38958e-08
-2.16251e-06
-3.47005e-06
7.98613e-08
-3.8525e-06
-1.35803e-06
5.6186e-08
-4.51053e-06
4.68922e-10
-2.61259e-06
-1.0027e-06
1.83098e-07
1.93675e-06
-2.61451e-06
1.90443e-07
3.40797e-06
-4.14486e-06
1.59019e-07
3.31356e-06
-5.28901e-06
1.30135e-07
2.47392e-06
-5.89103e-06
1.13465e-07
1.23861e-06
-5.82782e-06
1.113e-07
-2.88235e-07
-4.98145e-06
1.17317e-07
-2.03776e-06
-3.35487e-06
1.15221e-07
-3.67018e-06
-1.32536e-06
7.75922e-08
-4.32211e-06
-1.85786e-08
-2.52716e-06
-8.50804e-07
1.52945e-07
1.79874e-06
-2.22051e-06
1.37788e-07
3.07698e-06
-3.52875e-06
1.12256e-07
2.98643e-06
-4.51691e-06
9.30719e-08
2.26407e-06
-5.04773e-06
8.3818e-08
1.20671e-06
-5.01075e-06
8.60754e-08
-9.84741e-08
-4.29785e-06
9.59977e-08
-1.60643e-06
-2.90782e-06
9.79034e-08
-3.03159e-06
-1.15923e-06
6.34943e-08
-3.65588e-06
-3.914e-08
-2.21033e-06
-4.05057e-07
1.13026e-06
-1.10987e-06
1.7947e-06
-1.80056e-06
1.73896e-06
-2.34112e-06
1.37285e-06
-2.65275e-06
8.36351e-07
-2.66392e-06
1.63051e-07
-2.30385e-06
-6.35108e-07
-1.56109e-06
-1.42831e-06
-6.10493e-07
-1.86204e-06
-1.25422e-06
-5.32275e-07
-2.16913e-07
1.87946e-06
-1.41351e-06
-2.03265e-07
2.87921e-06
-2.26154e-06
-1.6655e-07
2.75354e-06
-2.94198e-06
-1.34e-07
2.18729e-06
-3.38365e-06
-1.13118e-07
1.39114e-06
-3.5012e-06
-1.07379e-07
3.87979e-07
-3.17043e-06
-1.18796e-07
-8.47085e-07
-2.28731e-06
-1.25747e-07
-2.18568e-06
-9.85184e-07
-8.74226e-08
-3.07674e-06
4.5085e-08
-2.28449e-06
-1.11702e-06
-2.57193e-07
2.95604e-06
-2.84448e-06
-2.7256e-07
4.87373e-06
-4.4681e-06
-2.24857e-07
4.66835e-06
-5.72357e-06
-1.74922e-07
3.56046e-06
-6.48325e-06
-1.39354e-07
1.99262e-06
-6.62251e-06
-1.24447e-07
5.7858e-08
-5.92957e-06
-1.26244e-07
-2.29192e-06
-4.25637e-06
-1.2815e-07
-4.70239e-06
-1.8491e-06
-9.12624e-08
-6.05931e-06
2.27679e-08
-4.03712e-06
-1.31444e-06
-1.88656e-07
3.18265e-06
-3.34946e-06
-2.17506e-07
5.38794e-06
-5.25323e-06
-1.80167e-07
5.17264e-06
-6.71127e-06
-1.35757e-07
3.8928e-06
-7.57889e-06
-1.01187e-07
2.06806e-06
-7.71357e-06
-8.18386e-08
-1.96162e-07
-6.88437e-06
-7.63377e-08
-2.91687e-06
-4.92179e-06
-7.45726e-08
-5.68634e-06
-2.1216e-06
-5.51168e-08
-7.15844e-06
2.54856e-09
-4.62854e-06
-1.35084e-06
-9.44918e-08
3.19524e-06
-3.46941e-06
-1.14424e-07
5.47033e-06
-5.45539e-06
-9.50412e-08
5.26894e-06
-6.97596e-06
-6.99998e-08
3.96184e-06
-7.8798e-06
-4.94792e-08
2.08441e-06
-8.01818e-06
-3.66441e-08
-2.55346e-07
-7.1514e-06
-3.14638e-08
-3.07416e-06
-5.10174e-06
-2.97e-08
-5.94703e-06
-2.18494e-06
-2.28769e-08
-7.45956e-06
-2.42704e-09
-4.79256e-06
-1.34946e-06
1.07683e-12
3.18032e-06
-3.48323e-06
-8.82723e-13
5.46782e-06
-5.48822e-06
-6.36281e-13
5.27797e-06
-7.02553e-06
-6.72237e-15
3.97576e-06
-7.94107e-06
-3.07558e-14
2.09694e-06
-8.08409e-06
-2.71509e-13
-2.50804e-07
-7.2107e-06
-4.50359e-13
-3.08851e-06
-5.14043e-06
-6.35723e-13
-5.98721e-06
-2.19537e-06
-6.08341e-13
-7.51693e-06
5.01983e-14
-4.82814e-06
-1.34946e-06
9.44939e-08
3.18032e-06
-3.48323e-06
1.14422e-07
5.46782e-06
-5.48822e-06
9.50399e-08
5.27797e-06
-7.02553e-06
6.99997e-08
3.97576e-06
-7.94107e-06
4.9479e-08
2.09694e-06
-8.08409e-06
3.66435e-08
-2.50804e-07
-7.2107e-06
3.14629e-08
-3.08851e-06
-5.14043e-06
2.96987e-08
-5.98721e-06
-2.19537e-06
2.28756e-08
-7.51693e-06
2.42705e-09
-4.82814e-06
-1.35084e-06
1.88659e-07
3.19524e-06
-3.46941e-06
2.17504e-07
5.47033e-06
-5.45539e-06
1.80165e-07
5.26894e-06
-6.97596e-06
1.35757e-07
3.96184e-06
-7.8798e-06
1.01187e-07
2.08441e-06
-8.01817e-06
8.18375e-08
-2.55347e-07
-7.1514e-06
7.63366e-08
-3.07416e-06
-5.10174e-06
7.45713e-08
-5.94703e-06
-2.18494e-06
5.51157e-08
-7.45956e-06
-2.54877e-09
-4.79256e-06
-1.31444e-06
2.57194e-07
3.18265e-06
-3.34946e-06
2.72557e-07
5.38794e-06
-5.25323e-06
2.24856e-07
5.17264e-06
-6.71127e-06
1.74922e-07
3.8928e-06
-7.57889e-06
1.39353e-07
2.06806e-06
-7.71357e-06
1.24446e-07
-1.96163e-07
-6.88438e-06
1.26242e-07
-2.91686e-06
-4.92179e-06
1.28149e-07
-5.68634e-06
-2.1216e-06
9.12611e-08
-7.15844e-06
-2.27685e-08
-4.62854e-06
-1.11702e-06
2.16913e-07
2.95604e-06
-2.84448e-06
2.03263e-07
4.87373e-06
-4.4681e-06
1.6655e-07
4.66835e-06
-5.72357e-06
1.34e-07
3.56046e-06
-6.48325e-06
1.13117e-07
1.99262e-06
-6.62251e-06
1.07377e-07
5.7857e-08
-5.92957e-06
1.18794e-07
-2.29192e-06
-4.25637e-06
1.25746e-07
-4.70238e-06
-1.84911e-06
8.7421e-08
-6.05931e-06
-4.50859e-08
-4.03712e-06
-5.32275e-07
1.87945e-06
-1.41351e-06
2.87921e-06
-2.26154e-06
2.75354e-06
-2.94198e-06
2.18729e-06
-3.38365e-06
1.39114e-06
-3.5012e-06
3.87979e-07
-3.17043e-06
-8.47085e-07
-2.28731e-06
-2.18568e-06
-9.85185e-07
-3.07674e-06
-2.28449e-06
-7.42675e-07
-3.04168e-07
2.9263e-06
-1.85812e-06
-2.86323e-07
4.28098e-06
-2.89356e-06
-2.25839e-07
4.01481e-06
-3.74694e-06
-1.66055e-07
3.20672e-06
-4.38057e-06
-1.20918e-07
2.14569e-06
-4.70373e-06
-9.85826e-08
8.09723e-07
-4.52383e-06
-1.01686e-07
-9.25296e-07
-3.55487e-06
-1.21068e-07
-3.03358e-06
-1.74856e-06
-1.02449e-07
-4.7806e-06
2.59267e-08
-4.05898e-06
-1.52359e-06
-3.55111e-07
4.53057e-06
-3.71724e-06
-3.73463e-07
7.15452e-06
-5.71959e-06
-2.92816e-07
6.73767e-06
-7.30793e-06
-2.0232e-07
5.18507e-06
-8.41018e-06
-1.2796e-07
3.10192e-06
-8.88121e-06
-8.00647e-08
5.10362e-07
-8.41239e-06
-7.10753e-08
-2.79135e-06
-6.54002e-06
-8.56188e-08
-6.61021e-06
-3.2002e-06
-8.06605e-08
-9.42091e-06
7.18107e-09
-7.21857e-06
-1.77746e-06
-2.56277e-07
4.86127e-06
-4.357e-06
-2.91113e-07
7.88513e-06
-6.70828e-06
-2.26826e-07
7.45793e-06
-8.55756e-06
-1.47685e-07
5.68745e-06
-9.81721e-06
-7.95489e-08
3.2793e-06
-1.03389e-05
-3.29218e-08
2.78343e-07
-9.75436e-06
-1.5676e-08
-3.55676e-06
-7.55189e-06
-2.24322e-08
-7.952e-06
-3.66985e-06
-3.08525e-08
-1.10903e-05
-3.28258e-09
-8.28793e-06
-1.81876e-06
-1.26724e-07
4.88444e-06
-4.49792e-06
-1.50618e-07
8.009e-06
-6.94917e-06
-1.1693e-07
7.6103e-06
-8.87889e-06
-7.29965e-08
5.81687e-06
-1.01931e-05
-3.41882e-08
3.35326e-06
-1.07409e-05
-6.99246e-09
2.66526e-07
-1.01345e-05
5.52254e-09
-3.70173e-06
-7.84006e-06
2.83293e-09
-8.26678e-06
-3.79707e-06
-5.62807e-09
-1.15278e-05
-2.91895e-09
-8.58999e-06
-1.81346e-06
7.4645e-13
4.86706e-06
-4.50786e-06
-6.49769e-13
8.0116e-06
-6.98082e-06
-5.03671e-13
7.63401e-06
-8.93199e-06
-1.69699e-13
5.85393e-06
-1.02649e-05
-3.54324e-13
3.39567e-06
-1.08258e-05
-5.23793e-13
3.03139e-07
-1.02222e-05
-5.12407e-13
-3.68663e-06
-7.91014e-06
-4.04175e-13
-8.29642e-06
-3.82788e-06
2.05179e-13
-1.16048e-05
3.33223e-13
-8.65894e-06
-1.81346e-06
1.26725e-07
4.86706e-06
-4.50786e-06
1.50616e-07
8.0116e-06
-6.98082e-06
1.16929e-07
7.63401e-06
-8.93199e-06
7.29962e-08
5.85393e-06
-1.02649e-05
3.41875e-08
3.39567e-06
-1.08258e-05
6.99135e-09
3.03139e-07
-1.02222e-05
-5.52361e-09
-3.68663e-06
-7.91014e-06
-2.83383e-09
-8.29642e-06
-3.82788e-06
5.62826e-09
-1.16048e-05
2.91954e-09
-8.65894e-06
-1.81876e-06
2.56278e-07
4.88444e-06
-4.49792e-06
2.91112e-07
8.009e-06
-6.94917e-06
2.26825e-07
7.6103e-06
-8.87889e-06
1.47684e-07
5.81687e-06
-1.01931e-05
7.95478e-08
3.35326e-06
-1.07409e-05
3.29203e-08
2.66526e-07
-1.01345e-05
1.56751e-08
-3.70172e-06
-7.84006e-06
2.24317e-08
-8.26678e-06
-3.79707e-06
3.08527e-08
-1.15278e-05
3.28297e-09
-8.58999e-06
-1.77746e-06
3.55112e-07
4.86127e-06
-4.357e-06
3.73462e-07
7.88513e-06
-6.70828e-06
2.92815e-07
7.45793e-06
-8.55756e-06
2.0232e-07
5.68745e-06
-9.81721e-06
1.27959e-07
3.2793e-06
-1.03389e-05
8.00628e-08
2.78343e-07
-9.75436e-06
7.10743e-08
-3.55676e-06
-7.55189e-06
8.56186e-08
-7.952e-06
-3.66985e-06
8.06609e-08
-1.10903e-05
-7.18079e-09
-8.28793e-06
-1.52359e-06
3.04168e-07
4.53057e-06
-3.71724e-06
2.86322e-07
7.15453e-06
-5.71959e-06
2.2584e-07
6.73767e-06
-7.30793e-06
1.66055e-07
5.18507e-06
-8.41018e-06
1.20917e-07
3.10192e-06
-8.88121e-06
9.85807e-08
5.10362e-07
-8.41239e-06
1.01684e-07
-2.79135e-06
-6.54002e-06
1.21068e-07
-6.61021e-06
-3.2002e-06
1.02449e-07
-9.42091e-06
-2.5926e-08
-7.21857e-06
-7.42675e-07
2.9263e-06
-1.85812e-06
4.28098e-06
-2.89356e-06
4.01481e-06
-3.74694e-06
3.20672e-06
-4.38057e-06
2.14569e-06
-4.70373e-06
8.09722e-07
-4.52383e-06
-9.25297e-07
-3.55487e-06
-3.03358e-06
-1.74856e-06
-4.7806e-06
-4.05898e-06
-1.11729e-06
-4.28243e-07
4.47183e-06
-2.51526e-06
-3.88361e-07
6.06731e-06
-3.71508e-06
-2.70432e-07
5.48507e-06
-4.7186e-06
-1.46641e-07
4.35688e-06
-5.57175e-06
-3.93545e-08
3.03819e-06
-6.22106e-06
3.83852e-08
1.42065e-06
-6.40692e-06
7.84018e-08
-8.17846e-07
-5.5661e-06
5.29716e-08
-3.92737e-06
-3.20357e-06
-3.77646e-09
-7.13935e-06
-3.31959e-08
-7.22935e-06
-2.18379e-06
-4.87653e-07
6.77377e-06
-4.9453e-06
-4.93091e-07
1.00208e-05
-7.30686e-06
-3.41005e-07
9.16981e-06
-9.18961e-06
-1.65581e-07
7.08676e-06
-1.06533e-05
-9.26764e-09
4.5355e-06
-1.16058e-05
1.12029e-07
1.38921e-06
-1.16479e-05
1.82651e-07
-2.85349e-06
-9.88199e-06
1.58895e-07
-8.48201e-06
-5.53251e-06
5.4963e-08
-1.38291e-05
-4.00196e-08
-1.27443e-05
-2.50671e-06
-3.44139e-07
7.22447e-06
-5.74417e-06
-3.76059e-07
1.10056e-05
-8.52593e-06
-2.58151e-07
1.01568e-05
-1.0723e-05
-1.12742e-07
7.83172e-06
-1.2393e-05
2.02405e-08
4.91975e-06
-1.34253e-05
1.25837e-07
1.29688e-06
-1.33872e-05
1.86243e-07
-3.59853e-06
-1.12755e-05
1.69913e-07
-1.00747e-05
-6.25098e-06
7.78974e-08
-1.61378e-05
-2.26396e-08
-1.45563e-05
-2.54806e-06
-1.67496e-07
7.25586e-06
-5.89868e-06
-1.91684e-07
1.11752e-05
-8.79722e-06
-1.31095e-07
1.03818e-05
-1.10923e-05
-5.30956e-08
8.05226e-06
-1.28368e-05
1.9559e-08
5.09849e-06
-1.39139e-05
7.75224e-08
1.39197e-06
-1.38806e-05
1.09554e-07
-3.6584e-06
-1.16889e-05
1.00843e-07
-1.03893e-05
-6.46958e-06
5.07146e-08
-1.67199e-05
-7.32099e-09
-1.50749e-05
-2.53461e-06
4.57083e-13
7.23417e-06
-5.89722e-06
-3.38782e-13
1.11825e-05
-8.81904e-06
-3.32002e-13
1.04247e-05
-1.11407e-05
-2.54247e-13
8.12248e-06
-1.29121e-05
-4.52435e-13
5.18664e-06
-1.40153e-05
-3.23654e-13
1.48389e-06
-1.40015e-05
2.43298e-13
-3.59092e-06
-1.18042e-05
4.90241e-13
-1.03929e-05
-6.53674e-06
5.78396e-13
-1.68215e-05
3.9509e-13
-1.5203e-05
-2.53461e-06
1.67497e-07
7.23417e-06
-5.89722e-06
1.91684e-07
1.11825e-05
-8.81904e-06
1.31095e-07
1.04247e-05
-1.11407e-05
5.30952e-08
8.12248e-06
-1.29121e-05
-1.95599e-08
5.18664e-06
-1.40153e-05
-7.75229e-08
1.48389e-06
-1.40015e-05
-1.09553e-07
-3.59092e-06
-1.18042e-05
-1.00843e-07
-1.03929e-05
-6.53674e-06
-5.07137e-08
-1.68215e-05
7.32173e-09
-1.5203e-05
-2.54806e-06
3.4414e-07
7.25586e-06
-5.89868e-06
3.76059e-07
1.11752e-05
-8.79722e-06
2.58151e-07
1.03818e-05
-1.10923e-05
1.12742e-07
8.05226e-06
-1.28368e-05
-2.02416e-08
5.09849e-06
-1.39139e-05
-1.25837e-07
1.39197e-06
-1.38806e-05
-1.86242e-07
-3.6584e-06
-1.16889e-05
-1.69912e-07
-1.03893e-05
-6.46958e-06
-7.78962e-08
-1.67199e-05
2.26403e-08
-1.50749e-05
-2.50671e-06
4.87653e-07
7.22447e-06
-5.74417e-06
4.93091e-07
1.10056e-05
-8.52593e-06
3.41005e-07
1.01568e-05
-1.0723e-05
1.6558e-07
7.83172e-06
-1.2393e-05
9.26643e-09
4.91975e-06
-1.34253e-05
-1.12029e-07
1.29688e-06
-1.33872e-05
-1.8265e-07
-3.59852e-06
-1.12755e-05
-1.58893e-07
-1.00747e-05
-6.25098e-06
-5.49614e-08
-1.61378e-05
4.00195e-08
-1.45563e-05
-2.18379e-06
4.28243e-07
6.77377e-06
-4.9453e-06
3.88361e-07
1.00208e-05
-7.30686e-06
2.70433e-07
9.16981e-06
-9.18961e-06
1.46641e-07
7.08676e-06
-1.06533e-05
3.93532e-08
4.5355e-06
-1.16058e-05
-3.83862e-08
1.38921e-06
-1.16479e-05
-7.84009e-08
-2.85349e-06
-9.88199e-06
-5.29696e-08
-8.48201e-06
-5.53251e-06
3.77992e-09
-1.38291e-05
3.31965e-08
-1.27443e-05
-1.11729e-06
4.47183e-06
-2.51526e-06
6.06731e-06
-3.71508e-06
5.48507e-06
-4.7186e-06
4.35688e-06
-5.57175e-06
3.03819e-06
-6.22107e-06
1.42065e-06
-6.40692e-06
-8.17846e-07
-5.5661e-06
-3.92737e-06
-3.20357e-06
-7.13935e-06
-7.22935e-06
-1.83731e-06
-6.07126e-07
6.91627e-06
-3.42862e-06
-5.05909e-07
8.16453e-06
-4.56347e-06
-2.56181e-07
6.8761e-06
-5.50086e-06
4.30006e-09
5.28997e-06
-6.43323e-06
2.40919e-07
3.72965e-06
-7.4194e-06
4.64003e-07
1.94281e-06
-8.21879e-06
6.48673e-07
-6.67124e-07
-7.96313e-06
6.52722e-07
-4.83575e-06
-5.37105e-06
3.89202e-07
-1.01206e-05
-9.29482e-08
-1.25075e-05
-3.29582e-06
-6.68423e-07
1.01309e-05
-6.52129e-06
-6.27817e-07
1.33681e-05
-8.86412e-06
-3.30117e-07
1.15866e-05
-1.06115e-05
8.42301e-09
8.83e-06
-1.20665e-05
3.27126e-07
5.90435e-06
-1.33097e-05
6.18792e-07
2.47757e-06
-1.3994e-05
8.40892e-07
-2.36142e-06
-1.29135e-05
8.36924e-07
-9.74673e-06
-8.29242e-06
4.8916e-07
-1.85501e-05
-1.00195e-07
-2.10294e-05
-3.68809e-06
-4.58495e-07
1.07026e-05
-7.46568e-06
-4.70827e-07
1.46262e-05
-1.02551e-05
-2.5471e-07
1.28708e-05
-1.22932e-05
6.67417e-09
9.87152e-06
-1.38932e-05
2.57499e-07
6.58946e-06
-1.51407e-05
4.8051e-07
2.68259e-06
-1.56844e-05
6.34309e-07
-2.84823e-06
-1.42582e-05
6.16859e-07
-1.12808e-05
-9.01826e-06
3.50936e-07
-2.12395e-05
-5.56505e-08
-2.36191e-05
-3.7171e-06
-2.19037e-07
1.07335e-05
-7.60931e-06
-2.37482e-07
1.48341e-05
-1.05193e-05
-1.30991e-07
1.31681e-05
-1.26524e-05
2.9438e-09
1.01891e-05
-1.43164e-05
1.32895e-07
6.88703e-06
-1.56001e-05
2.45827e-07
2.91038e-06
-1.61541e-05
3.17874e-07
-2.78795e-06
-1.46795e-05
3.03479e-07
-1.15506e-05
-9.28031e-06
1.71444e-07
-2.19396e-05
-1.86465e-08
-2.43922e-05
-3.68874e-06
1.12662e-13
1.07039e-05
-7.58348e-06
-1.84231e-13
1.48398e-05
-1.05147e-05
-5.44373e-13
1.3225e-05
-1.26763e-05
-8.21461e-13
1.0287e-05
-1.43711e-05
-8.16003e-13
7.0144e-06
-1.56908e-05
-1.40363e-13
3.04938e-06
-1.62831e-05
3.35302e-13
-2.68075e-06
-1.48273e-05
-1.565e-13
-1.15452e-05
-9.38769e-06
-8.30326e-13
-2.20896e-05
1.58616e-13
-2.46093e-05
-3.68874e-06
2.19037e-07
1.07039e-05
-7.58348e-06
2.37482e-07
1.48398e-05
-1.05147e-05
1.3099e-07
1.3225e-05
-1.26763e-05
-2.94546e-09
1.0287e-05
-1.43711e-05
-1.32896e-07
7.0144e-06
-1.56908e-05
-2.45827e-07
3.04938e-06
-1.62831e-05
-3.17873e-07
-2.68075e-06
-1.48273e-05
-3.03479e-07
-1.15452e-05
-9.3877e-06
-1.71446e-07
-2.20896e-05
1.86469e-08
-2.46093e-05
-3.71711e-06
4.58496e-07
1.07335e-05
-7.60931e-06
4.70827e-07
1.48341e-05
-1.05193e-05
2.54709e-07
1.31681e-05
-1.26524e-05
-6.67596e-09
1.01891e-05
-1.43164e-05
-2.57501e-07
6.88703e-06
-1.56001e-05
-4.8051e-07
2.91038e-06
-1.61541e-05
-6.34308e-07
-2.78795e-06
-1.46795e-05
-6.16858e-07
-1.15506e-05
-9.28031e-06
-3.50937e-07
-2.19396e-05
5.565e-08
-2.43922e-05
-3.68809e-06
6.68424e-07
1.07026e-05
-7.46568e-06
6.27818e-07
1.46262e-05
-1.02551e-05
3.30117e-07
1.28708e-05
-1.22932e-05
-8.42483e-09
9.87151e-06
-1.38932e-05
-3.27128e-07
6.58946e-06
-1.51407e-05
-6.18792e-07
2.68259e-06
-1.56844e-05
-8.40891e-07
-2.84823e-06
-1.42582e-05
-8.36924e-07
-1.12808e-05
-9.01826e-06
-4.89161e-07
-2.12395e-05
1.00194e-07
-2.36191e-05
-3.29582e-06
6.07127e-07
1.01309e-05
-6.52129e-06
5.0591e-07
1.33681e-05
-8.86412e-06
2.56182e-07
1.15866e-05
-1.06115e-05
-4.30157e-09
8.83e-06
-1.20665e-05
-2.40921e-07
5.90436e-06
-1.33097e-05
-4.64004e-07
2.47757e-06
-1.3994e-05
-6.48672e-07
-2.36142e-06
-1.29135e-05
-6.52721e-07
-9.74673e-06
-8.29242e-06
-3.89202e-07
-1.85501e-05
9.29474e-08
-2.10294e-05
-1.83731e-06
6.91627e-06
-3.42862e-06
8.16453e-06
-4.56347e-06
6.8761e-06
-5.50085e-06
5.28996e-06
-6.43323e-06
3.72965e-06
-7.4194e-06
1.94281e-06
-8.21879e-06
-6.67124e-07
-7.96313e-06
-4.83575e-06
-5.37105e-06
-1.01206e-05
-1.25075e-05
-3.19531e-06
-8.52716e-07
1.09643e-05
-4.21787e-06
-6.42278e-07
9.82937e-06
-4.45639e-06
-1.63843e-07
7.27846e-06
-4.64319e-06
3.03892e-07
5.17287e-06
-5.13995e-06
7.29748e-07
3.49666e-06
-6.13877e-06
1.17113e-06
1.7705e-06
-7.58567e-06
1.61391e-06
-8.34128e-07
-8.528e-06
1.72608e-06
-5.6195e-06
-7.01069e-06
1.15089e-06
-1.27888e-05
-3.13956e-07
-1.92042e-05
-5.28927e-06
-9.11658e-07
1.54791e-05
-7.7771e-06
-7.96103e-07
1.60098e-05
-8.61089e-06
-2.68404e-07
1.25249e-05
-8.86005e-06
2.97242e-07
9.08581e-06
-9.13191e-06
8.34503e-07
6.07145e-06
-9.73076e-06
1.36304e-06
2.88451e-06
-1.06468e-05
1.82737e-06
-1.65884e-06
-1.09571e-05
1.87256e-06
-9.5829e-06
-8.46549e-06
1.10008e-06
-2.0991e-05
-3.77659e-07
-2.94312e-05
-5.77476e-06
-6.08727e-07
1.61745e-05
-8.77134e-06
-5.93812e-07
1.74204e-05
-9.88226e-06
-2.3884e-07
1.39522e-05
-1.01714e-05
1.73985e-07
1.0284e-05
-1.02796e-05
5.73461e-07
6.95862e-06
-1.05594e-05
9.52483e-07
3.37303e-06
-1.10812e-05
1.24922e-06
-1.74832e-06
-1.10938e-05
1.23621e-06
-1.06319e-05
-8.43054e-06
6.82685e-07
-2.34853e-05
-2.24616e-07
-3.22027e-05
-5.78241e-06
-2.8579e-07
1.6193e-05
-8.85746e-06
-2.98461e-07
1.76138e-05
-1.00466e-05
-1.32389e-07
1.42508e-05
-1.03703e-05
7.08716e-08
1.06158e-05
-1.04636e-05
2.70659e-07
7.28313e-06
-1.06988e-05
4.55213e-07
3.64293e-06
-1.11862e-05
5.88598e-07
-1.63997e-06
-1.12178e-05
5.69714e-07
-1.08524e-05
-8.56511e-06
3.10024e-07
-2.42197e-05
-8.51058e-08
-3.30968e-05
-5.7326e-06
-4.89275e-13
1.61507e-05
-8.78987e-06
-7.142e-13
1.75986e-05
-9.98944e-06
-1.36182e-12
1.42922e-05
-1.03324e-05
-1.66068e-12
1.07008e-05
-1.04459e-05
-1.11561e-12
7.39853e-06
-1.07095e-05
2.31654e-13
3.76817e-06
-1.12439e-05
6.50513e-13
-1.55766e-06
-1.13369e-05
-5.23279e-13
-1.08825e-05
-8.69004e-06
1.2223e-13
-2.44265e-05
3.17093e-13
-3.33845e-05
-5.7326e-06
2.85789e-07
1.61507e-05
-8.78987e-06
2.9846e-07
1.75986e-05
-9.98944e-06
1.32386e-07
1.42922e-05
-1.03324e-05
-7.08749e-08
1.07008e-05
-1.04459e-05
-2.70661e-07
7.39853e-06
-1.07095e-05
-4.55212e-07
3.76817e-06
-1.12439e-05
-5.88597e-07
-1.55766e-06
-1.13369e-05
-5.69715e-07
-1.08825e-05
-8.69004e-06
-3.10023e-07
-2.44265e-05
8.51061e-08
-3.33845e-05
-5.78241e-06
6.08726e-07
1.6193e-05
-8.85746e-06
5.93812e-07
1.76138e-05
-1.00466e-05
2.38838e-07
1.42508e-05
-1.03703e-05
-1.73988e-07
1.06158e-05
-1.04636e-05
-5.73463e-07
7.28313e-06
-1.06988e-05
-9.52482e-07
3.64293e-06
-1.11862e-05
-1.24922e-06
-1.63997e-06
-1.12178e-05
-1.23621e-06
-1.08524e-05
-8.56511e-06
-6.82685e-07
-2.42197e-05
2.24615e-07
-3.30968e-05
-5.77476e-06
9.11658e-07
1.61745e-05
-8.77134e-06
7.96103e-07
1.74204e-05
-9.88226e-06
2.68402e-07
1.39522e-05
-1.01714e-05
-2.97245e-07
1.0284e-05
-1.02796e-05
-8.34504e-07
6.95862e-06
-1.05594e-05
-1.36304e-06
3.37303e-06
-1.10812e-05
-1.82737e-06
-1.74832e-06
-1.10938e-05
-1.87256e-06
-1.06319e-05
-8.43053e-06
-1.10008e-06
-2.34853e-05
3.77658e-07
-3.22027e-05
-5.28927e-06
8.52717e-07
1.54791e-05
-7.77711e-06
6.4228e-07
1.60098e-05
-8.61089e-06
1.63842e-07
1.25249e-05
-8.86005e-06
-3.03895e-07
9.08581e-06
-9.13191e-06
-7.29749e-07
6.07146e-06
-9.73076e-06
-1.17113e-06
2.88451e-06
-1.06468e-05
-1.61391e-06
-1.65884e-06
-1.09571e-05
-1.72608e-06
-9.5829e-06
-8.46549e-06
-1.15089e-06
-2.0991e-05
3.13955e-07
-2.94312e-05
-3.19531e-06
1.09643e-05
-4.21787e-06
9.82937e-06
-4.45639e-06
7.27846e-06
-4.64319e-06
5.17287e-06
-5.13995e-06
3.49666e-06
-6.13877e-06
1.7705e-06
-7.58567e-06
-8.34128e-07
-8.528e-06
-5.6195e-06
-7.01069e-06
-1.27888e-05
-1.92042e-05
-3.21106e-06
-1.38557e-06
1.55609e-05
-1.11158e-06
-9.97549e-07
8.72744e-06
1.54324e-06
-2.26655e-07
4.8503e-06
3.30497e-06
4.2734e-07
2.9838e-06
4.05214e-06
9.86951e-07
1.76254e-06
3.58424e-06
1.55154e-06
6.86856e-07
1.58934e-06
2.18939e-06
-1.02862e-06
-1.63118e-06
2.37438e-06
-4.77335e-06
-3.60959e-06
1.40638e-06
-1.22168e-05
-1.53395e-06
-2.12798e-05
-5.56148e-06
-1.3386e-06
2.09936e-05
-2.99684e-06
-1.18343e-06
1.3631e-05
9.96591e-07
-4.31922e-07
8.73675e-06
4.3678e-06
3.11439e-07
5.8305e-06
6.74828e-06
9.85889e-07
3.69204e-06
7.80057e-06
1.64624e-06
1.73752e-06
6.99294e-06
2.29975e-06
-9.6157e-07
3.97386e-06
2.38234e-06
-6.57179e-06
8.30162e-07
1.10091e-06
-1.75418e-05
-1.28511e-06
-2.88499e-05
-6.06648e-06
-8.42305e-07
2.17446e-05
-3.54413e-06
-8.53825e-07
1.45685e-05
6.57194e-07
-3.96851e-07
9.71582e-06
4.46122e-06
1.17907e-07
6.67347e-06
7.45329e-06
6.07814e-07
4.34462e-06
9.22877e-06
1.07942e-06
2.16437e-06
9.06833e-06
1.50651e-06
-7.94638e-07
6.28459e-06
1.51905e-06
-6.98482e-06
2.10163e-06
6.95181e-07
-1.88966e-05
-6.91756e-07
-3.06944e-05
-6.01222e-06
-3.81875e-07
2.17448e-05
-3.45164e-06
-4.21372e-07
1.46208e-05
7.77324e-07
-2.20287e-07
9.84526e-06
4.64913e-06
2.382e-08
6.83812e-06
7.76155e-06
2.64871e-07
4.51365e-06