/*--------------------------------*- C++ -*----------------------------------*\
  =========                 |
  \\      /  F ield         | OpenFOAM: The Open Source CFD Toolbox
   \\    /   O peration     | Website:  https://openfoam.org
    \\  /    A nd           | Version:  9
     \\/     M anipulation  |
\*---------------------------------------------------------------------------*/
FoamFile
{
    format      ascii;
    class       volVectorField;
    location    "0.13";
    object      U;
}
// * * * * * * * * * * * * * * * * * * * * * * * * * * * * * * * * * * * * * //

dimensions      [0 1 -1 0 0 0 0];

internalField   nonuniform List<vector> 
1000
(
(-0.000439606 -0.000183331 0.000565747)
(-0.00270612 -1.40021e-05 0.00120874)
(-0.00622973 4.68229e-05 0.00125737)
(-0.0092326 3.02608e-06 0.00103057)
(-0.0112599 -0.000109161 0.000655863)
(-0.0119113 -0.000259612 0.000157661)
(-0.0108528 -0.000417658 -0.000448642)
(-0.00798666 -0.000515549 -0.00102662)
(-0.00371945 -0.000445925 -0.00124481)
(-0.000662542 -8.37927e-05 -0.000580275)
(-0.000857636 -0.000464379 0.000894397)
(-0.00490216 -0.000237666 0.00216562)
(-0.011018 -0.000125484 0.00226144)
(-0.0161257 -0.000172859 0.00178083)
(-0.0194457 -0.000345123 0.000994733)
(-0.0203915 -0.00059958 -3.14784e-05)
(-0.0184747 -0.000866185 -0.00122747)
(-0.0135479 -0.00101731 -0.0023006)
(-0.00630984 -0.000868915 -0.00257243)
(-0.00113171 -0.000216953 -0.00107028)
(-0.000952301 -0.000521837 0.000868833)
(-0.00556291 -0.000469823 0.00234085)
(-0.0125581 -0.000380641 0.00247244)
(-0.0183603 -0.000369516 0.00191955)
(-0.0221058 -0.000449106 0.00100566)
(-0.0231358 -0.000599904 -0.000185138)
(-0.0209033 -0.000759969 -0.00156445)
(-0.0152497 -0.000833525 -0.00278243)
(-0.00697554 -0.000703342 -0.00302796)
(-0.00117701 -0.000247408 -0.0011913)
(-0.000935941 -0.000373435 0.000787432)
(-0.00567281 -0.000395411 0.0022952)
(-0.0129386 -0.000339843 0.00244769)
(-0.0189626 -0.000313356 0.00189625)
(-0.0228493 -0.000335481 0.000971332)
(-0.0239118 -0.000396866 -0.000242726)
(-0.0215771 -0.000464878 -0.00165508)
(-0.0156817 -0.000488247 -0.00289981)
(-0.00706605 -0.00041203 -0.00312584)
(-0.00112837 -0.000176094 -0.00119105)
(-0.000915093 -0.000133223 0.00074117)
(-0.00566558 -0.000150346 0.00224858)
(-0.0129999 -0.000132196 0.00241099)
(-0.0190862 -0.000119503 0.00186951)
(-0.0230174 -0.000121306 0.00095303)
(-0.024094 -0.000135547 -0.000256091)
(-0.021732 -0.000152382 -0.0016683)
(-0.0157665 -0.000156385 -0.00291434)
(-0.00705326 -0.000132426 -0.00313346)
(-0.00109554 -6.24033e-05 -0.00117828)
(-0.000915093 0.000133293 0.00074117)
(-0.00566558 0.000150379 0.00224858)
(-0.0129999 0.000132218 0.00241099)
(-0.0190862 0.00011952 0.00186951)
(-0.0230174 0.000121319 0.000953029)
(-0.024094 0.000135556 -0.000256091)
(-0.021732 0.000152388 -0.0016683)
(-0.0157665 0.00015639 -0.00291434)
(-0.00705326 0.00013243 -0.00313346)
(-0.00109554 6.23982e-05 -0.00117828)
(-0.000935941 0.000373519 0.000787435)
(-0.00567282 0.000395445 0.00229521)
(-0.0129386 0.000339867 0.00244769)
(-0.0189626 0.000313375 0.00189625)
(-0.0228493 0.000335495 0.000971331)
(-0.0239118 0.000396875 -0.000242727)
(-0.0215771 0.000464885 -0.00165508)
(-0.0156817 0.000488253 -0.00289981)
(-0.00706605 0.000412035 -0.00312584)
(-0.00112837 0.000176089 -0.00119106)
(-0.000952292 0.000521908 0.000868848)
(-0.00556292 0.000469842 0.00234088)
(-0.0125581 0.000380659 0.00247245)
(-0.0183604 0.000369532 0.00191955)
(-0.0221058 0.00044912 0.00100566)
(-0.0231358 0.000599914 -0.000185138)
(-0.0209033 0.000759978 -0.00156445)
(-0.0152497 0.000833533 -0.00278243)
(-0.00697554 0.000703351 -0.00302796)
(-0.001177 0.000247406 -0.0011913)
(-0.00085757 0.00046442 0.000894471)
(-0.00490213 0.000237639 0.00216569)
(-0.011018 0.000125502 0.00226146)
(-0.0161257 0.000172878 0.00178084)
(-0.0194458 0.000345139 0.000994736)
(-0.0203915 0.000599593 -3.14766e-05)
(-0.0184747 0.000866194 -0.00122746)
(-0.0135479 0.00101732 -0.0023006)
(-0.00630983 0.000868927 -0.00257243)
(-0.0011317 0.000216956 -0.00107028)
(-0.000439545 0.000183266 0.000565815)
(-0.00270616 1.39341e-05 0.00120882)
(-0.00622979 -4.68253e-05 0.00125738)
(-0.00923267 -3.02052e-06 0.00103058)
(-0.0112599 0.000109166 0.000655864)
(-0.0119113 0.000259615 0.000157662)
(-0.0108529 0.00041766 -0.00044864)
(-0.00798667 0.000515552 -0.00102661)
(-0.00371945 0.000445933 -0.00124481)
(-0.000662537 8.3799e-05 -0.000580278)
(-0.00111593 -0.00058365 0.00329961)
(-0.00538324 -0.00044957 0.00577296)
(-0.0114139 -0.000335677 0.00575601)
(-0.0164671 -0.000292192 0.00458406)
(-0.0198281 -0.000310628 0.00276282)
(-0.020913 -0.000381679 0.000430137)
(-0.0191954 -0.000473932 -0.00226177)
(-0.0144458 -0.0005087 -0.00478712)
(-0.00723013 -0.000348507 -0.00587464)
(-0.00156518 0.000153326 -0.0034192)
(-0.00238333 -0.00123009 0.00526066)
(-0.0107141 -0.00109586 0.0100853)
(-0.0220081 -0.000871956 0.0100955)
(-0.0312423 -0.000754588 0.00773328)
(-0.0371259 -0.000761269 0.00408227)
(-0.0387341 -0.000878056 -0.00050855)
(-0.0352801 -0.001031 -0.00565489)
(-0.0264647 -0.00106922 -0.0102271)
(-0.0133582 -0.000752772 -0.0116527)
(-0.00297257 0.000144762 -0.00606714)
(-0.00277464 -0.00112631 0.0055257)
(-0.0125206 -0.00119222 0.011098)
(-0.0257085 -0.00100633 0.0111607)
(-0.0363964 -0.000861207 0.00841808)
(-0.0431219 -0.00081822 0.00415461)
(-0.044852 -0.000872867 -0.0011978)
(-0.040725 -0.000957212 -0.00716344)
(-0.0304325 -0.000953343 -0.0123739)
(-0.0152251 -0.000702181 -0.013752)
(-0.00331669 -7.82114e-05 -0.00687161)
(-0.00281666 -0.000723326 0.00540004)
(-0.0129115 -0.000839332 0.011128)
(-0.0266697 -0.000727828 0.0112386)
(-0.0378034 -0.000618019 0.00844358)
(-0.0447959 -0.000566181 0.00406378)
(-0.0465726 -0.000572747 -0.00145601)
(-0.0422382 -0.000600444 -0.0076185)
(-0.0314776 -0.000583026 -0.0129824)
(-0.0156058 -0.000443613 -0.0143147)
(-0.00332165 -0.000119621 -0.00704367)
(-0.0027954 -0.000245114 0.00529536)
(-0.0129409 -0.000296924 0.0110361)
(-0.0268375 -0.000260831 0.0111741)
(-0.0380892 -0.000220509 0.00839438)
(-0.0451605 -0.000198026 0.00401638)
(-0.0469594 -0.000194514 -0.00151736)
(-0.0425752 -0.000198775 -0.0077086)
(-0.0316892 -0.000190399 -0.0130994)
(-0.015639 -0.000147738 -0.0144175)
(-0.00328896 -5.15925e-05 -0.00705896)
(-0.0027954 0.000245151 0.00529535)
(-0.0129409 0.000296905 0.0110361)
(-0.0268375 0.000260812 0.0111741)
(-0.0380892 0.000220504 0.00839438)
(-0.0451605 0.000198027 0.00401638)
(-0.0469594 0.000194519 -0.00151736)
(-0.0425752 0.000198781 -0.0077086)
(-0.0316892 0.00019041 -0.0130994)
(-0.015639 0.000147752 -0.0144175)
(-0.00328896 5.1599e-05 -0.00705896)
(-0.00281665 0.000723366 0.00540004)
(-0.0129115 0.000839308 0.011128)
(-0.0266697 0.000727807 0.0112386)
(-0.0378034 0.000618013 0.00844358)
(-0.0447959 0.000566183 0.00406377)
(-0.0465726 0.000572752 -0.00145602)
(-0.0422382 0.000600452 -0.0076185)
(-0.0314776 0.000583039 -0.0129824)
(-0.0156058 0.00044363 -0.0143147)
(-0.00332165 0.000119627 -0.00704367)
(-0.00277461 0.00112633 0.0055257)
(-0.0125205 0.00119218 0.011098)
(-0.0257084 0.0010063 0.0111607)
(-0.0363964 0.0008612 0.00841808)
(-0.0431219 0.000818224 0.0041546)
(-0.044852 0.000872874 -0.0011978)
(-0.0407249 0.000957222 -0.00716345)
(-0.0304325 0.000953359 -0.0123739)
(-0.015225 0.000702203 -0.013752)
(-0.00331669 7.82203e-05 -0.00687162)
(-0.00238326 0.00123005 0.0052607)
(-0.0107141 0.00109579 0.0100854)
(-0.022008 0.00087193 0.0100955)
(-0.0312423 0.000754589 0.00773329)
(-0.0371259 0.00076128 0.00408227)
(-0.0387341 0.000878068 -0.000508553)
(-0.0352801 0.00103101 -0.00565489)
(-0.0264646 0.00106924 -0.0102271)
(-0.0133581 0.000752798 -0.0116528)
(-0.00297255 -0.000144752 -0.00606715)
(-0.00111585 0.000583576 0.00329959)
(-0.0053832 0.000449501 0.00577301)
(-0.0114139 0.000335653 0.00575601)
(-0.0164672 0.000292188 0.00458406)
(-0.0198281 0.000310631 0.00276282)
(-0.020913 0.000381683 0.000430138)
(-0.0191954 0.000473937 -0.00226176)
(-0.0144458 0.00050871 -0.00478711)
(-0.00723012 0.000348523 -0.00587464)
(-0.00156518 -0.000153317 -0.00341919)
(-0.00156002 -0.000924598 0.00824114)
(-0.00714269 -0.000817294 0.0133312)
(-0.0147815 -0.000656371 0.0130104)
(-0.0211471 -0.000545481 0.010266)
(-0.0255252 -0.000497259 0.00616053)
(-0.0272628 -0.000519428 0.000978014)
(-0.0256146 -0.000590675 -0.0049906)
(-0.0199651 -0.000608381 -0.0107473)
(-0.0105906 -0.000382368 -0.0136156)
(-0.00252431 0.00028459 -0.00880395)
(-0.00341048 -0.001902 0.0131238)
(-0.0146098 -0.00184809 0.0229552)
(-0.029284 -0.00151975 0.0224621)
(-0.0411833 -0.00125285 0.0170344)
(-0.0489824 -0.00111527 0.00893911)
(-0.0516537 -0.00112614 -0.00109329)
(-0.0480528 -0.00122636 -0.0123668)
(-0.0372459 -0.00122737 -0.0226853)
(-0.0198641 -0.000798184 -0.0266436)
(-0.00480905 0.000366259 -0.0154428)
(-0.00400688 -0.00167831 0.0140863)
(-0.0172099 -0.0018506 0.0254151)
(-0.0344683 -0.00156388 0.0249235)
(-0.0483283 -0.00126968 0.0186081)
(-0.0572876 -0.00108453 0.00914386)
(-0.0602042 -0.0010326 -0.00257159)
(-0.0558183 -0.00105612 -0.0156616)
(-0.0431031 -0.00101845 -0.0274532)
(-0.0228097 -0.000703529 -0.0314732)
(-0.00542235 5.32817e-05 -0.0176025)
(-0.00408382 -0.00104492 0.0140489)
(-0.0177819 -0.00124042 0.0257186)
(-0.0358096 -0.00106306 0.0252897)
(-0.0502646 -0.000852072 0.0188105)
(-0.0595911 -0.00070302 0.00903964)
(-0.0626026 -0.000635054 -0.00309041)
(-0.057989 -0.000618783 -0.0166576)
(-0.0446838 -0.000580866 -0.0288457)
(-0.023482 -0.000419412 -0.032848)
(-0.00549004 -5.77968e-05 -0.0181722)
(-0.00405835 -0.000347384 0.0139243)
(-0.0178249 -0.000427566 0.0256398)
(-0.036032 -0.000369044 0.0252575)
(-0.0506397 -0.000293703 0.0187884)
(-0.0600734 -0.0002374 0.0089935)
(-0.0631268 -0.000207563 -0.00319461)
(-0.0584684 -0.000196072 -0.0168513)
(-0.045015 -0.000181064 -0.0291276)
(-0.0235759 -0.000134222 -0.0331331)
(-0.00546639 -3.19365e-05 -0.0182828)
(-0.00405835 0.000347412 0.0139243)
(-0.0178249 0.000427544 0.0256398)
(-0.036032 0.000369025 0.0252575)
(-0.0506397 0.0002937 0.0187884)
(-0.0600734 0.000237402 0.0089935)
(-0.0631268 0.000207565 -0.00319461)
(-0.0584684 0.000196075 -0.0168513)
(-0.045015 0.000181068 -0.0291276)
(-0.0235759 0.000134225 -0.0331331)
(-0.00546639 3.19414e-05 -0.0182828)
(-0.00408382 0.00104495 0.0140489)
(-0.0177819 0.00124039 0.0257186)
(-0.0358096 0.00106304 0.0252897)
(-0.0502646 0.000852068 0.0188105)
(-0.0595911 0.000703021 0.00903963)
(-0.0626026 0.000635055 -0.00309042)
(-0.057989 0.000618786 -0.0166576)
(-0.0446838 0.000580871 -0.0288457)
(-0.023482 0.000419417 -0.032848)
(-0.00549004 5.78006e-05 -0.0181722)
(-0.00400686 0.00167833 0.0140863)
(-0.0172098 0.00185057 0.0254151)
(-0.0344682 0.00156386 0.0249235)
(-0.0483283 0.00126967 0.0186081)
(-0.0572876 0.00108453 0.00914385)
(-0.0602042 0.0010326 -0.0025716)
(-0.0558183 0.00105612 -0.0156616)
(-0.0431031 0.00101845 -0.0274532)
(-0.0228097 0.000703537 -0.0314732)
(-0.00542236 -5.32795e-05 -0.0176025)
(-0.00341045 0.001902 0.0131238)
(-0.0146097 0.00184805 0.0229552)
(-0.0292839 0.00151973 0.0224621)
(-0.0411832 0.00125285 0.0170344)
(-0.0489824 0.00111528 0.00893911)
(-0.0516537 0.00112615 -0.0010933)
(-0.0480527 0.00122636 -0.0123668)
(-0.0372459 0.00122738 -0.0226854)
(-0.0198641 0.000798191 -0.0266436)
(-0.00480906 -0.00036626 -0.0154429)
(-0.00156001 0.000924585 0.00824111)
(-0.00714269 0.00081726 0.0133312)
(-0.0147815 0.000656356 0.0130104)
(-0.0211471 0.00054548 0.010266)
(-0.0255252 0.000497261 0.00616053)
(-0.0272628 0.000519428 0.000978016)
(-0.0256146 0.000590674 -0.0049906)
(-0.0199651 0.000608383 -0.0107473)
(-0.0105906 0.000382371 -0.0136156)
(-0.00252431 -0.000284591 -0.00880393)
(-0.00213329 -0.00131986 0.0146801)
(-0.0092532 -0.00122359 0.0228808)
(-0.0186632 -0.000996298 0.0220515)
(-0.0265029 -0.000809021 0.0174632)
(-0.0322253 -0.000695922 0.0108356)
(-0.0352017 -0.000675715 0.00246426)
(-0.0343729 -0.000765256 -0.00747689)
(-0.0283104 -0.000817836 -0.0177318)
(-0.0164253 -0.000555935 -0.0238536)
(-0.00445406 0.000322189 -0.0167702)
(-0.00462009 -0.00268992 0.0231792)
(-0.0189776 -0.0026919 0.0389334)
(-0.0372399 -0.00220917 0.0375866)
(-0.0520338 -0.00175164 0.0285736)
(-0.0623039 -0.0014465 0.0155279)
(-0.0671045 -0.00134469 -0.000691433)
(-0.0647439 -0.00143807 -0.0194242)
(-0.0528822 -0.00149213 -0.0378025)
(-0.0306906 -0.00103321 -0.0467328)
(-0.0082961 0.000423455 -0.0293967)
(-0.0054123 -0.00234048 0.0249599)
(-0.0223368 -0.00260726 0.0430851)
(-0.0438575 -0.00215925 0.041674)
(-0.0611339 -0.00164915 0.0312208)
(-0.0729749 -0.00126613 0.0160016)
(-0.0783312 -0.0010724 -0.00290362)
(-0.0753243 -0.00103801 -0.0246786)
(-0.061316 -0.00103102 -0.0457407)
(-0.0353667 -0.000750019 -0.0551984)
(-0.00941012 9.25017e-05 -0.0336077)
(-0.00550645 -0.00143625 0.0250273)
(-0.023041 -0.00170523 0.0437166)
(-0.0455121 -0.0014168 0.0424047)
(-0.0635348 -0.00105116 0.0316976)
(-0.0758771 -0.00075582 0.0160047)
(-0.081446 -0.00057683 -0.00355071)
(-0.07829 -0.000507813 -0.0261286)
(-0.0636531 -0.000484954 -0.0479493)
(-0.0365517 -0.000370296 -0.0575693)
(-0.00962008 -2.45208e-05 -0.0347628)
(-0.00546687 -0.000472725 0.0248866)
(-0.0230705 -0.00057954 0.0436685)
(-0.0457506 -0.000482332 0.0424397)
(-0.0639595 -0.000352078 0.031757)
(-0.0764477 -0.000242985 0.0160344)
(-0.0821035 -0.000172061 -0.00360917)
(-0.0789447 -0.00014061 -0.0263382)
(-0.0641709 -0.000130236 -0.0483424)
(-0.0367827 -0.00010341 -0.0580425)
(-0.00963718 -1.87066e-05 -0.0350087)
(-0.00546687 0.000472747 0.0248866)
(-0.0230705 0.000579523 0.0436685)
(-0.0457506 0.00048232 0.0424397)
(-0.0639595 0.000352078 0.031757)
(-0.0764477 0.000242985 0.0160344)
(-0.0821035 0.000172055 -0.00360918)
(-0.0789447 0.0001406 -0.0263382)
(-0.0641709 0.000130223 -0.0483424)
(-0.0367827 0.000103397 -0.0580425)
(-0.00963717 1.87075e-05 -0.0350087)
(-0.00550645 0.00143627 0.0250273)
(-0.023041 0.00170521 0.0437166)
(-0.0455121 0.00141679 0.0424047)
(-0.0635348 0.00105116 0.0316976)
(-0.0758771 0.000755817 0.0160046)
(-0.081446 0.000576822 -0.00355072)
(-0.07829 0.000507804 -0.0261286)
(-0.0636531 0.000484941 -0.0479493)
(-0.0365517 0.000370283 -0.0575693)
(-0.00962008 2.452e-05 -0.0347628)
(-0.00541229 0.0023405 0.0249599)
(-0.0223367 0.00260723 0.0430851)
(-0.0438575 0.00215923 0.041674)
(-0.0611339 0.00164915 0.0312208)
(-0.0729749 0.00126613 0.0160016)
(-0.0783311 0.00107238 -0.00290363)
(-0.0753243 0.001038 -0.0246786)
(-0.061316 0.00103101 -0.0457407)
(-0.0353667 0.000750006 -0.0551984)
(-0.00941012 -9.25065e-05 -0.0336077)
(-0.00462008 0.00268993 0.0231792)
(-0.0189775 0.00269188 0.0389334)
(-0.0372399 0.00220916 0.0375866)
(-0.0520338 0.00175164 0.0285736)
(-0.0623039 0.0014465 0.0155279)
(-0.0671045 0.00134467 -0.000691453)
(-0.0647439 0.00143805 -0.0194242)
(-0.0528822 0.00149211 -0.0378025)
(-0.0306906 0.00103319 -0.0467328)
(-0.0082961 -0.000423464 -0.0293967)
(-0.00213328 0.00131985 0.01468)
(-0.0092532 0.00122357 0.0228808)
(-0.0186632 0.000996291 0.0220515)
(-0.0265029 0.00080902 0.0174632)
(-0.0322253 0.000695918 0.0108356)
(-0.0352017 0.000675704 0.00246426)
(-0.0343729 0.000765242 -0.0074769)
(-0.0283104 0.000817823 -0.0177318)
(-0.0164253 0.000555923 -0.0238536)
(-0.00445406 -0.000322195 -0.0167702)
(-0.00318774 -0.00186512 0.0234369)
(-0.0125623 -0.00174514 0.0351644)
(-0.0241347 -0.00137388 0.0333982)
(-0.0337084 -0.00102889 0.0266434)
(-0.0412129 -0.000783471 0.0173704)
(-0.0462352 -0.000685035 0.00562675)
(-0.0474122 -0.000734741 -0.00904872)
(-0.04201 -0.000871668 -0.0257255)
(-0.0275407 -0.000709953 -0.0380291)
(-0.00868828 0.000196152 -0.0299064)
(-0.00663267 -0.00374973 0.0365117)
(-0.0254014 -0.00374487 0.0590803)
(-0.0480579 -0.00294229 0.0562659)
(-0.0662927 -0.00210751 0.0431415)
(-0.079859 -0.00145605 0.0248851)
(-0.0881437 -0.00109152 0.00203905)
(-0.088973 -0.00107299 -0.02567)
(-0.0778269 -0.0012649 -0.0556951)
(-0.0506836 -0.0010877 -0.0747287)
(-0.0156727 0.000205645 -0.0526497)
(-0.00767906 -0.00320397 0.0392427)
(-0.029693 -0.00352407 0.0652109)
(-0.0564069 -0.00275659 0.062294)
(-0.0777426 -0.00184061 0.0472057)
(-0.0934129 -0.00106431 0.0260028)
(-0.102796 -0.000541297 -0.000588269)
(-0.103418 -0.00037587 -0.0327332)
(-0.0901044 -0.000477525 -0.067227)
(-0.0583804 -0.000527992 -0.088108)
(-0.0178075 -1.63727e-05 -0.0603192)
(-0.00777875 -0.00193588 0.0394173)
(-0.0305073 -0.00225778 0.0662244)
(-0.058365 -0.00175681 0.0635032)
(-0.0806225 -0.00111185 0.0481425)
(-0.0969726 -0.000544221 0.0263714)
(-0.10678 -0.000142055 -0.00106539)
(-0.107465 3.38678e-05 -0.0343428)
(-0.0936024 -7.55265e-06 -0.0701284)
(-0.0605368 -0.000124083 -0.0916883)
(-0.0183593 -4.06019e-05 -0.0624602)
(-0.00771154 -0.000630903 0.0392566)
(-0.0304886 -0.000758438 0.0662211)
(-0.0585753 -0.000588584 0.0636539)
(-0.0810565 -0.000361172 0.0483735)
(-0.0976103 -0.000157393 0.02661)
(-0.107584 -1.09033e-05 -0.000907938)
(-0.108362 5.99678e-05 -0.0343869)
(-0.0944354 4.95026e-05 -0.0704996)
(-0.0610672 -3.48648e-06 -0.0923367)
(-0.0184927 -1.40504e-05 -0.0629301)
(-0.00771154 0.000630918 0.0392566)
(-0.0304886 0.000758425 0.0662211)
(-0.0585753 0.000588573 0.0636539)
(-0.0810565 0.000361168 0.0483735)
(-0.0976103 0.000157385 0.02661)
(-0.107584 1.08921e-05 -0.00090794)
(-0.108362 -5.99783e-05 -0.0343869)
(-0.0944354 -4.95101e-05 -0.0704996)
(-0.0610672 3.49119e-06 -0.0923366)
(-0.0184927 1.4058e-05 -0.0629301)
(-0.00777875 0.0019359 0.0394173)
(-0.0305073 0.00225776 0.0662244)
(-0.058365 0.0017568 0.0635032)
(-0.0806225 0.00111185 0.0481425)
(-0.0969726 0.000544211 0.0263713)
(-0.10678 0.000142043 -0.00106539)
(-0.107465 -3.38778e-05 -0.0343428)
(-0.0936024 7.54421e-06 -0.0701284)
(-0.0605367 0.000124082 -0.0916883)
(-0.0183593 4.06047e-05 -0.0624602)
(-0.00767905 0.00320398 0.0392427)
(-0.029693 0.00352405 0.0652109)
(-0.0564068 0.00275658 0.062294)
(-0.0777426 0.0018406 0.0472057)
(-0.0934129 0.0010643 0.0260028)
(-0.102796 0.000541279 -0.000588271)
(-0.103418 0.000375858 -0.0327332)
(-0.0901044 0.000477518 -0.067227)
(-0.0583804 0.000527991 -0.088108)
(-0.0178074 1.63754e-05 -0.0603191)
(-0.00663266 0.00374974 0.0365117)
(-0.0254014 0.00374486 0.0590803)
(-0.0480579 0.00294229 0.0562659)
(-0.0662927 0.00210751 0.0431415)
(-0.079859 0.00145604 0.0248851)
(-0.0881437 0.0010915 0.00203905)
(-0.088973 0.00107298 -0.02567)
(-0.0778269 0.0012649 -0.055695)
(-0.0506836 0.00108771 -0.0747286)
(-0.0156727 -0.000205639 -0.0526497)
(-0.00318773 0.00186511 0.0234368)
(-0.0125622 0.00174513 0.0351644)
(-0.0241347 0.00137388 0.0333982)
(-0.0337084 0.00102889 0.0266434)
(-0.0412129 0.000783462 0.0173704)
(-0.0462353 0.000685019 0.00562675)
(-0.0474122 0.00073473 -0.00904872)
(-0.04201 0.000871665 -0.0257254)
(-0.0275407 0.000709958 -0.0380291)
(-0.00868827 -0.000196145 -0.0299064)
(-0.00528504 -0.00265318 0.0360611)
(-0.0180116 -0.00239665 0.05106)
(-0.0316926 -0.00166515 0.0472472)
(-0.0426545 -0.000933699 0.037754)
(-0.051887 -0.00033138 0.0258333)
(-0.0596586 0.000100219 0.0109257)
(-0.0645716 0.000312479 -0.00892768)
(-0.0622023 0.000103046 -0.0344001)
(-0.0468206 -0.000234181 -0.0577484)
(-0.0169843 -0.000189757 -0.0529756)
(-0.0102544 -0.00522577 0.0551555)
(-0.0352492 -0.00501534 0.0847104)
(-0.0625033 -0.00347705 0.0790129)
(-0.0836857 -0.00179969 0.0610813)
(-0.100312 -0.000334197 0.0377694)
(-0.112874 0.000786634 0.0086872)
(-0.119146 0.00143642 -0.0289581)
(-0.111919 0.00116471 -0.0750488)
(-0.0825323 0.000232866 -0.112997)
(-0.0288529 -0.000430911 -0.0933982)
(-0.0116352 -0.00434785 0.0590017)
(-0.0406708 -0.00459263 0.0931744)
(-0.072869 -0.0031649 0.0874348)
(-0.0977489 -0.00144324 0.0671654)
(-0.116964 0.000126366 0.0403417)
(-0.131033 0.00135349 0.00666041)
(-0.137485 0.00206671 -0.0368677)
(-0.128205 0.00186262 -0.0899002)
(-0.0938032 0.000785418 -0.13256)
(-0.0322972 -0.000321111 -0.106952)
(-0.0117152 -0.00257448 0.059274)
(-0.0415294 -0.00288829 0.0946246)
(-0.0750534 -0.00197931 0.0892827)
(-0.101025 -0.000820527 0.0688502)
(-0.121104 0.00025727 0.0415083)
(-0.135795 0.00110581 0.00693161)
(-0.142555 0.0015808 -0.0380137)
(-0.132929 0.00144686 -0.0930764)
(-0.0972012 0.000705059 -0.137499)
(-0.0333595 -0.000129741 -0.110763)
(-0.0115978 -0.00082908 0.0590813)
(-0.0414003 -0.000960327 0.0946729)
(-0.0751516 -0.000656463 0.089605)
(-0.101382 -0.000257542 0.0693667)
(-0.121731 0.000117022 0.0421338)
(-0.136695 0.000412431 0.00754704)
(-0.143705 0.00057263 -0.037623)
(-0.134171 0.000525357 -0.0932195)
(-0.0982064 0.00027039 -0.138306)
(-0.0337088 -2.51274e-05 -0.111636)
(-0.0115978 0.000829089 0.0590813)
(-0.0414003 0.00096032 0.0946729)
(-0.0751516 0.000656456 0.089605)
(-0.101382 0.000257536 0.0693667)
(-0.121731 -0.000117032 0.0421338)
(-0.136695 -0.000412437 0.00754704)
(-0.143705 -0.000572624 -0.037623)
(-0.134171 -0.000525346 -0.0932195)
(-0.0982064 -0.000270377 -0.138306)
(-0.0337088 2.51359e-05 -0.111636)
(-0.0117152 0.00257449 0.059274)
(-0.0415294 0.00288828 0.0946246)
(-0.0750534 0.0019793 0.0892827)
(-0.101025 0.000820521 0.0688501)
(-0.121104 -0.00025728 0.0415083)
(-0.135795 -0.00110582 0.00693162)
(-0.142555 -0.00158079 -0.0380137)
(-0.132929 -0.00144685 -0.0930764)
(-0.0972012 -0.000705055 -0.137499)
(-0.0333595 0.000129743 -0.110763)
(-0.0116352 0.00434786 0.0590017)
(-0.0406707 0.00459263 0.0931744)
(-0.072869 0.0031649 0.0874348)
(-0.0977489 0.00144324 0.0671654)
(-0.116964 -0.000126377 0.0403417)
(-0.131033 -0.00135349 0.00666042)
(-0.137485 -0.0020667 -0.0368676)
(-0.128205 -0.00186261 -0.0899002)
(-0.0938033 -0.000785404 -0.13256)
(-0.0322972 0.000321117 -0.106952)
(-0.0102544 0.00522578 0.0551555)
(-0.0352492 0.00501535 0.0847105)
(-0.0625033 0.00347706 0.0790129)
(-0.0836857 0.00179969 0.0610813)
(-0.100312 0.000334183 0.0377694)
(-0.112874 -0.000786645 0.0086872)
(-0.119146 -0.00143641 -0.028958)
(-0.111919 -0.00116468 -0.0750488)
(-0.0825323 -0.000232843 -0.112997)
(-0.0288529 0.000430913 -0.0933982)
(-0.00528504 0.00265318 0.036061)
(-0.0180116 0.00239665 0.05106)
(-0.0316926 0.00166516 0.0472472)
(-0.0426545 0.000933697 0.037754)
(-0.051887 0.00033137 0.0258333)
(-0.0596586 -0.000100229 0.0109257)
(-0.0645716 -0.000312473 -0.00892768)
(-0.0622023 -0.000103029 -0.0344001)
(-0.0468206 0.000234197 -0.0577484)
(-0.0169843 0.000189763 -0.0529756)
(-0.00968599 -0.00380487 0.0557129)
(-0.0271532 -0.00315506 0.0709841)
(-0.0407954 -0.00157701 0.06248)
(-0.050695 6.96511e-06 0.0490807)
(-0.0597627 0.00141846 0.0345337)
(-0.0695584 0.00273541 0.0171661)
(-0.0794469 0.00383693 -0.00741103)
(-0.0835659 0.00388156 -0.0437169)
(-0.0730066 0.00240455 -0.0844223)
(-0.0294949 -0.000498711 -0.0942494)
(-0.0171056 -0.00730195 0.0830359)
(-0.0502327 -0.00645062 0.116545)
(-0.0789236 -0.00330744 0.104541)
(-0.0985992 9.11337e-05 0.0805175)
(-0.114087 0.00325647 0.0526846)
(-0.128012 0.00621227 0.0189445)
(-0.139293 0.00860325 -0.0276283)
(-0.138876 0.00871279 -0.0932657)
(-0.115944 0.00524747 -0.16154)
(-0.0437093 -0.00120755 -0.164321)
(-0.0188974 -0.00587303 0.0881871)
(-0.0567948 -0.00578802 0.127682)
(-0.0910474 -0.00308842 0.115797)
(-0.114367 9.75083e-05 0.0893175)
(-0.131973 0.00314177 0.0577924)
(-0.146724 0.00587417 0.0190824)
(-0.15751 0.00784191 -0.0345435)
(-0.154424 0.00767752 -0.110015)
(-0.126964 0.00435475 -0.187777)
(-0.0467288 -0.000805264 -0.187006)
(-0.0189086 -0.00339171 0.0885176)
(-0.0575195 -0.0035929 0.129562)
(-0.0931652 -0.00196866 0.118385)
(-0.117581 4.87856e-05 0.0919865)
(-0.135975 0.00200112 0.0601475)
(-0.151249 0.0037027 0.0206517)
(-0.162328 0.00481415 -0.0346204)
(-0.158994 0.00460824 -0.113103)
(-0.13066 0.00259387 -0.194409)
(-0.0479752 -0.000326915 -0.193637)
(-0.018709 -0.00107719 0.0882642)
(-0.0571788 -0.00118627 0.129632)
(-0.0930007 -0.000659751 0.118888)
(-0.117679 1.27619e-05 0.0928405)
(-0.136371 0.000666767 0.0612513)
(-0.151987 0.00122772 0.021844)
(-0.163465 0.00157322 -0.0336848)
(-0.160435 0.00148752 -0.113037)
(-0.132094 0.000840145 -0.195628)
(-0.0485671 -6.70683e-05 -0.195362)
(-0.018709 0.00107719 0.0882642)
(-0.0571788 0.00118627 0.129632)
(-0.0930007 0.000659739 0.118888)
(-0.117679 -1.27795e-05 0.0928405)
(-0.136371 -0.000666784 0.0612513)
(-0.151987 -0.00122772 0.021844)
(-0.163465 -0.00157321 -0.0336848)
(-0.160435 -0.00148752 -0.113037)
(-0.132094 -0.000840163 -0.195628)
(-0.0485671 6.70702e-05 -0.195362)
(-0.0189087 0.00339171 0.0885176)
(-0.0575195 0.0035929 0.129562)
(-0.0931652 0.00196864 0.118385)
(-0.117581 -4.88039e-05 0.0919865)
(-0.135975 -0.00200114 0.0601475)
(-0.151249 -0.0037027 0.0206517)
(-0.162328 -0.00481415 -0.0346204)
(-0.158994 -0.00460825 -0.113103)
(-0.13066 -0.00259388 -0.194409)
(-0.0479752 0.000326917 -0.193637)
(-0.0188974 0.00587304 0.0881871)
(-0.0567948 0.00578802 0.127682)
(-0.0910475 0.00308842 0.115797)
(-0.114367 -9.7527e-05 0.0893175)
(-0.131973 -0.00314179 0.0577924)
(-0.146724 -0.00587418 0.0190824)
(-0.15751 -0.0078419 -0.0345435)
(-0.154425 -0.00767752 -0.110015)
(-0.126964 -0.00435474 -0.187777)
(-0.0467288 0.000805264 -0.187006)
(-0.0171056 0.00730196 0.0830359)
(-0.0502327 0.00645064 0.116545)
(-0.0789236 0.00330744 0.104541)
(-0.0985992 -9.11528e-05 0.0805175)
(-0.114087 -0.00325649 0.0526846)
(-0.128012 -0.00621227 0.0189445)
(-0.139293 -0.00860323 -0.0276282)
(-0.138876 -0.00871278 -0.0932657)
(-0.115944 -0.00524748 -0.16154)
(-0.0437093 0.00120754 -0.164321)
(-0.00968599 0.00380488 0.0557129)
(-0.0271532 0.00315507 0.070984)
(-0.0407954 0.00157702 0.0624799)
(-0.050695 -6.97926e-06 0.0490807)
(-0.0597627 -0.00141848 0.0345337)
(-0.0695584 -0.00273541 0.0171661)
(-0.0794469 -0.00383692 -0.00741103)
(-0.0835659 -0.00388155 -0.0437169)
(-0.0730066 -0.00240456 -0.0844223)
(-0.0294949 0.000498698 -0.0942494)
(-0.0189551 -0.00541712 0.0835713)
(-0.0409306 -0.00404401 0.0910171)
(-0.0443899 -0.000980759 0.0742576)
(-0.0453733 0.00196598 0.0555521)
(-0.0483056 0.00455295 0.0387298)
(-0.0557607 0.00725158 0.0204566)
(-0.0689916 0.0100284 -0.00685853)
(-0.0819963 0.0108306 -0.0551606)
(-0.0896408 0.00746983 -0.119653)
(-0.037434 -0.00202056 -0.165943)
(-0.0307104 -0.0101031 0.119403)
(-0.0712696 -0.00812389 0.148952)
(-0.0848801 -0.00233547 0.12634)
(-0.0881021 0.00363452 0.0946175)
(-0.089767 0.00912749 0.0635416)
(-0.0942158 0.0147218 0.0287276)
(-0.103479 0.0200581 -0.0217722)
(-0.108922 0.0211392 -0.106005)
(-0.112948 0.0133819 -0.213232)
(-0.0399125 -0.00448191 -0.272027)
(-0.0331802 -0.00789781 0.125367)
(-0.0789305 -0.00731809 0.162841)
(-0.0969886 -0.00273389 0.140694)
(-0.101557 0.00245043 0.106439)
(-0.102474 0.00741223 0.0718107)
(-0.10449 0.0121796 0.0322831)
(-0.110319 0.0161133 -0.0252559)
(-0.111169 0.0161496 -0.121274)
(-0.113478 0.00902835 -0.243425)
(-0.0377411 -0.00300775 -0.303165)
(-0.0331083 -0.00445798 0.12562)
(-0.0792991 -0.00453245 0.165066)
(-0.0983822 -0.00194944 0.144018)
(-0.103514 0.00114862 0.11003)
(-0.104512 0.00419188 0.0752383)
(-0.106201 0.00701408 0.0350258)
(-0.111654 0.00910441 -0.0242269)
(-0.112128 0.00886547 -0.124235)
(-0.11501 0.00485814 -0.251845)
(-0.0382765 -0.0013858 -0.31287)
(-0.0328001 -0.00139766 0.125283)
(-0.0786306 -0.00149291 0.16509)
(-0.0977407 -0.000686138 0.144645)
(-0.103044 0.000314938 0.111104)
(-0.104243 0.00130856 0.0766218)
(-0.106163 0.00221387 0.0365101)
(-0.112008 0.00284636 -0.0230792)
(-0.113005 0.00273417 -0.124418)
(-0.116464 0.00150591 -0.253942)
(-0.0390391 -0.000351575 -0.315818)
(-0.0328001 0.00139765 0.125283)
(-0.0786306 0.00149289 0.16509)
(-0.0977407 0.00068611 0.144645)
(-0.103044 -0.000314973 0.111104)
(-0.104243 -0.00130858 0.0766218)
(-0.106163 -0.00221386 0.0365101)
(-0.112008 -0.00284635 -0.0230792)
(-0.113005 -0.00273418 -0.124418)
(-0.116464 -0.00150591 -0.253942)
(-0.0390391 0.000351579 -0.315818)
(-0.0331083 0.00445797 0.12562)
(-0.0792991 0.00453243 0.165066)
(-0.0983823 0.00194942 0.144018)
(-0.103514 -0.00114866 0.11003)
(-0.104512 -0.0041919 0.0752383)
(-0.106201 -0.00701407 0.0350258)
(-0.111654 -0.0091044 -0.0242269)
(-0.112128 -0.00886548 -0.124235)
(-0.11501 -0.00485813 -0.251845)
(-0.0382765 0.0013858 -0.31287)
(-0.0331802 0.00789781 0.125367)
(-0.0789305 0.00731809 0.162841)
(-0.0969886 0.00273388 0.140694)
(-0.101557 -0.00245046 0.106439)
(-0.102474 -0.00741225 0.0718107)
(-0.10449 -0.0121796 0.0322831)
(-0.110319 -0.0161132 -0.0252559)
(-0.111169 -0.0161496 -0.121274)
(-0.113478 -0.00902834 -0.243425)
(-0.0377411 0.00300774 -0.303165)
(-0.0307105 0.0101031 0.119403)
(-0.0712696 0.0081239 0.148952)
(-0.0848801 0.00233546 0.126339)
(-0.0881021 -0.00363455 0.0946175)
(-0.089767 -0.00912751 0.0635417)
(-0.0942158 -0.0147218 0.0287276)
(-0.103479 -0.0200581 -0.0217722)
(-0.108922 -0.0211392 -0.106005)
(-0.112948 -0.013382 -0.213232)
(-0.0399125 0.0044819 -0.272027)
(-0.0189551 0.00541713 0.0835713)
(-0.0409306 0.00404402 0.0910171)
(-0.0443899 0.000980759 0.0742576)
(-0.0453733 -0.001966 0.055552)
(-0.0483056 -0.00455296 0.0387298)
(-0.0557607 -0.00725156 0.0204566)
(-0.0689916 -0.0100283 -0.00685853)
(-0.0819963 -0.0108306 -0.0551606)
(-0.0896408 -0.00746986 -0.119653)
(-0.037434 0.00202055 -0.165943)
(-0.0252168 -0.00893604 0.155192)
(-0.0298781 -0.00640583 0.101871)
(0.00446637 -0.00136218 0.0644809)
(0.0262531 0.00294194 0.0424703)
(0.0386873 0.00641562 0.0268012)
(0.0406014 0.00994609 0.0114142)
(0.02731 0.0139798 -0.0129204)
(0.00594254 0.0151521 -0.0642616)
(-0.0455913 0.00907742 -0.152391)
(-0.00654197 -0.0103716 -0.240663)
(-0.0451439 -0.0158146 0.213624)
(-0.0557012 -0.012353 0.163928)
(-0.0088208 -0.00356342 0.113557)
(0.0288684 0.00457273 0.0785768)
(0.0576765 0.0116223 0.0510997)
(0.075553 0.0186298 0.0237247)
(0.0745734 0.0261847 -0.016394)
(0.0675503 0.0280445 -0.0968936)
(-0.000275179 0.0151406 -0.232216)
(0.0282962 -0.0169789 -0.344112)
(-0.0492612 -0.0112767 0.22205)
(-0.0617479 -0.0106698 0.177433)
(-0.0140067 -0.00452054 0.126747)
(0.0271931 0.00205168 0.0897775)
(0.0613046 0.00824746 0.0596934)
(0.0861381 0.0141894 0.029181)
(0.0915492 0.0198057 -0.0152532)
(0.0911224 0.0202181 -0.104096)
(0.0200799 0.00888556 -0.253583)
(0.0401283 -0.00976235 -0.369848)
(-0.0490727 -0.00602518 0.222153)