/*--------------------------------*- C++ -*----------------------------------*\
  =========                 |
  \\      /  F ield         | OpenFOAM: The Open Source CFD Toolbox
   \\    /   O peration     | Website:  https://openfoam.org
    \\  /    A nd           | Version:  9
     \\/     M anipulation  |
\*---------------------------------------------------------------------------*/
FoamFile
{
    format      ascii;
    class       volScalarField;
    location    "0.89";
    object      p;
}
// * * * * * * * * * * * * * * * * * * * * * * * * * * * * * * * * * * * * * //

dimensions      [0 2 -2 0 0 0 0];

internalField   nonuniform List<scalar> 
1000
(
-2.22671e-06
-0.00049644
-0.00019218
0.000862546
0.00274522
0.00532968
0.00815372
0.0104519
0.0115199
0.010661
0.00016851
-0.000742384
-0.000546689
0.000554675
0.00262149
0.0055077
0.00867564
0.0111928
0.0122023
0.0107912
0.000958544
-0.00023127
-7.47643e-05
0.00112844
0.0034462
0.0067043
0.0102553
0.0129167
0.0136747
0.0115173
0.00181475
0.000438142
0.00058061
0.0018857
0.00443304
0.00803176
0.011849
0.0145636
0.0150571
0.0123031
0.00235321
0.00088799
0.00102923
0.00239481
0.00506841
0.00884131
0.0128045
0.0155281
0.0158623
0.0127916
0.00235322
0.000888002
0.00102924
0.00239482
0.00506841
0.00884132
0.0128045
0.0155281
0.0158623
0.0127916
0.00181479
0.00043818
0.000580641
0.00188572
0.00443306
0.00803178
0.011849
0.0145636
0.0150571
0.0123031
0.000958626
-0.000231197
-7.47105e-05
0.00112848
0.00344623
0.00670432
0.0102553
0.0129167
0.0136748
0.0115174
0.000168676
-0.000742258
-0.00054661
0.000554726
0.00262152
0.00550772
0.00867566
0.0111928
0.0122023
0.0107912
-2.07308e-06
-0.00049628
-0.000192088
0.000862602
0.00274526
0.00532971
0.00815374
0.010452
0.0115199
0.010661
0.000411806
-2.43126e-05
0.000298474
0.00122031
0.00284896
0.00513854
0.00772348
0.00993299
0.011022
0.00987548
0.000952365
2.30307e-05
0.000263141
0.00117714
0.00284296
0.00522837
0.00795824
0.0102944
0.0113435
0.00954109
0.00218545
0.000840996
0.00100968
0.00191785
0.00365183
0.00618648
0.00915116
0.011565
0.0124065
0.00984944
0.00335994
0.00169564
0.0017992
0.00270374
0.00451073
0.00721336
0.0103499
0.0127929
0.0134242
0.010314
0.00406054
0.00222502
0.00229158
0.0031939
0.00504236
0.00784631
0.0110695
0.0135138
0.0140201
0.0106359
0.00406055
0.00222503
0.00229159
0.00319391
0.00504236
0.00784631
0.0110695
0.0135138
0.0140201
0.0106359
0.00335998
0.00169567
0.00179923
0.00270376
0.00451075
0.00721338
0.0103499
0.0127929
0.0134242
0.010314
0.00218552
0.00084106
0.00100972
0.00191788
0.00365186
0.00618649
0.00915118
0.0115651
0.0124065
0.00984944
0.000952494
2.31329e-05
0.00026321
0.00117719
0.00284299
0.00522839
0.00795826
0.0102945
0.0113435
0.0095411
0.00041198
-2.41828e-05
0.000298556
0.00122037
0.002849
0.00513856
0.0077235
0.009933
0.011022
0.00987547
-0.000939138
-0.00150947
-0.00131225
-0.000600458
0.000844418
0.00315277
0.00610499
0.00901236
0.0107775
0.00946447
-7.42324e-05
-0.00130663
-0.00119513
-0.000485456
0.00100107
0.0034314
0.00658301
0.00966324
0.0113541
0.00889089
0.00168388
-0.000146535
-0.000169326
0.000440769
0.00189853
0.00443144
0.00780058
0.0110122
0.0125037
0.00899054
0.00329051
0.000999853
0.000845595
0.00135673
0.00279379
0.00542955
0.00893242
0.0121929
0.0134818
0.00926617
0.00422699
0.00169017
0.00145832
0.00191109
0.00333722
0.00602032
0.00958638
0.0128512
0.0140207
0.00947902
0.004227
0.00169018
0.00145833
0.0019111
0.00333722
0.00602033
0.00958638
0.0128512
0.0140207
0.00947902
0.00329054
0.000999881
0.000845619
0.00135675
0.0027938
0.00542956
0.00893243
0.0121929
0.0134818
0.00926617
0.00168393
-0.000146486
-0.000169286
0.000440798
0.00189855
0.00443146
0.00780059
0.0110122
0.0125037
0.00899054
-7.41513e-05
-0.00130656
-0.00119508
-0.000485418
0.00100109
0.00343142
0.00658303
0.00966325
0.0113541
0.00889089
-0.000939041
-0.00150939
-0.00131219
-0.000600414
0.000844449
0.00315279
0.00610501
0.00901237
0.0107775
0.00946447
-0.00444928
-0.00514751
-0.00513102
-0.00470463
-0.00346394
-0.000970243
0.00283891
0.00733809
0.010809
0.00991145
-0.00326232
-0.00477296
-0.00484445
-0.00440191
-0.00308674
-0.000413252
0.00370011
0.00853262
0.011933
0.00929603
-0.0009742
-0.00326442
-0.00358012
-0.00339591
-0.00227864
0.000405189
0.00467226
0.00976825
0.013103
0.00929234
0.00107481
-0.00181282
-0.00236831
-0.00244024
-0.00152111
0.00108746
0.00547404
0.0106966
0.0139302
0.0094246
0.00225399
-0.000951616
-0.00164838
-0.00186947
-0.00105943
0.00150887
0.00591143
0.0111652
0.0143354
0.00953823
0.002254
-0.000951609
-0.00164837
-0.00186946
-0.00105943
0.00150887
0.00591143
0.0111652
0.0143354
0.00953823
0.00107484
-0.00181279
-0.0023683
-0.00244023
-0.0015211
0.00108747
0.00547404
0.0106966
0.0139302
0.00942461
-0.000974159
-0.00326438
-0.00358009
-0.00339588
-0.00227863
0.000405201
0.00467227
0.00976826
0.013103
0.00929234
-0.00326226
-0.00477291
-0.00484441
-0.00440188
-0.00308672
-0.000413238
0.00370012
0.00853263
0.011933
0.00929603
-0.00444922
-0.00514745
-0.00513097
-0.00470459
-0.00346392
-0.000970226
0.00283892
0.00733809
0.010809
0.00991144
-0.0108
-0.011453
-0.0115372
-0.0114064
-0.0104278
-0.00766849
-0.00250136
0.00476137
0.0115949
0.012796
-0.00933685
-0.0109252
-0.0111177
-0.0109892
-0.00994468
-0.00706235
-0.00159374
0.00622349
0.0132253
0.0125695
-0.00663761
-0.0091698
-0.00978526
-0.0101881
-0.00968535
-0.00712963
-0.00167359
0.00658522
0.0139114
0.0125724
-0.00426497
-0.00751198
-0.00852637
-0.00942319
-0.00939261
-0.00712107
-0.00176233
0.0067149
0.0142322
0.0126215
-0.00291654
-0.00654042
-0.00778406
-0.00895586
-0.00918076
-0.0071005
-0.00179537
0.00674649
0.0143338
0.01265
-0.00291653
-0.00654042
-0.00778405
-0.00895585
-0.00918076
-0.0071005
-0.00179537
0.00674649
0.0143338
0.01265
-0.00426495
-0.00751196
-0.00852635
-0.00942318
-0.0093926
-0.00712106
-0.00176232
0.0067149
0.0142322
0.0126215
-0.00663758
-0.00916977
-0.00978524
-0.0101881
-0.00968534
-0.00712962
-0.00167358
0.00658523
0.0139114
0.0125724
-0.00933681
-0.0109251
-0.0111177
-0.0109892
-0.00994466
-0.00706234
-0.00159373
0.00622349
0.0132253
0.0125695
-0.0108
-0.011453
-0.0115372
-0.0114064
-0.0104278
-0.00766848
-0.00250136
0.00476136
0.0115948
0.012796
-0.0206068
-0.0206746
-0.0204875
-0.0204932
-0.019755
-0.0167542
-0.00984325
0.00150392
0.0143516
0.0210157
-0.0189018
-0.0200481
-0.0200532
-0.02019
-0.0196492
-0.016926
-0.010197
0.00167358
0.015174
0.0213687
-0.0159325
-0.0181669
-0.0188482
-0.0199244
-0.0204481
-0.0186817
-0.0124543
-6.11504e-05
0.0145295
0.0213797
-0.0133872
-0.0164183
-0.0176923
-0.0195621
-0.020926
-0.0198868
-0.0140264
-0.00138297
0.0138549
0.021292
-0.0119642
-0.0154075
-0.017009
-0.0192955
-0.0210743
-0.0203499
-0.0147253
-0.0020223
0.0134815
0.0212139
-0.0119642
-0.0154075
-0.017009
-0.0192955
-0.0210743
-0.0203499
-0.0147253
-0.0020223
0.0134815
0.0212139
-0.0133872
-0.0164183
-0.0176923
-0.0195621
-0.020926
-0.0198868
-0.0140264
-0.00138296
0.0138549
0.021292
-0.0159325
-0.0181668
-0.0188482
-0.0199244
-0.0204481
-0.0186817
-0.0124543
-6.11451e-05
0.0145295
0.0213797
-0.0189017
-0.020048
-0.0200532
-0.02019
-0.0196492
-0.016926
-0.0101969
0.00167359
0.015174
0.0213687
-0.0206068
-0.0206746
-0.0204874
-0.0204932
-0.0197549
-0.0167542
-0.00984325
0.00150391
0.0143516
0.0210157
-0.0349379
-0.032681
-0.0312253
-0.03082
-0.0301733
-0.0270247
-0.0184637
-0.00183809
0.0201161
0.0388516
-0.0327922
-0.0319065
-0.0308792
-0.0309765
-0.0310909
-0.0290938
-0.0217936
-0.00535563
0.0177681
0.0389598
-0.0295343
-0.0298331
-0.0297818
-0.031312
-0.0331629
-0.0329823
-0.0270121
-0.0102672
0.0146889
0.0387997
-0.0268734
-0.0279838
-0.0286982
-0.0313063
-0.0343641
-0.03534
-0.0301538
-0.0132307
0.0127687
0.03866
-0.0254264
-0.0269446
-0.0280634
-0.0311994
-0.0348079
-0.036285
-0.0314463
-0.0144819
0.0119359
0.0385778
-0.0254264
-0.0269446
-0.0280634
-0.0311994
-0.0348079
-0.036285
-0.0314463
-0.0144819
0.0119359
0.0385778
-0.0268734
-0.0279838
-0.0286982
-0.0313063
-0.0343641
-0.03534
-0.0301538
-0.0132307
0.0127687
0.03866
-0.0295343
-0.0298331
-0.0297818
-0.031312
-0.0331629
-0.0329823
-0.0270121
-0.0102672
0.0146889
0.0387997
-0.0327922
-0.0319065
-0.0308792
-0.0309765
-0.0310909
-0.0290938
-0.0217936
-0.00535563
0.017768
0.0389598
-0.0349379
-0.032681
-0.0312253
-0.03082
-0.0301733
-0.0270247
-0.0184637
-0.00183809
0.0201161
0.0388516
-0.0575933
-0.0470338
-0.0422524
-0.0401776
-0.0390667
-0.0355577
-0.0256898
-0.00314784
0.0302685
0.0731822
-0.0543261
-0.0455636
-0.041648
-0.0408575
-0.0413349
-0.0400724
-0.0331493
-0.0121509
0.0224982
0.0736459
-0.0501627
-0.0426357
-0.0399057
-0.0411099
-0.0439755
-0.045154
-0.0403174
-0.0192244
0.0177818
0.0750935
-0.047069
-0.0403005
-0.0383975
-0.0408918
-0.0452464
-0.0477979
-0.0440263
-0.0226235
0.0158017
0.076456
-0.0454822
-0.039078
-0.0375946
-0.0406788
-0.0456593
-0.0487499
-0.0454192
-0.0238648
0.0151707
0.077116
-0.0454822
-0.039078
-0.0375946
-0.0406788
-0.0456593
-0.0487499
-0.0454192
-0.0238648
0.0151707
0.077116
-0.047069
-0.0403004
-0.0383975
-0.0408917
-0.0452464
-0.0477979
-0.0440263
-0.0226235
0.0158017
0.076456
-0.0501626
-0.0426357
-0.0399057
-0.0411099
-0.0439755
-0.045154
-0.0403174
-0.0192244
0.0177818
0.0750935
-0.054326
-0.0455635
-0.041648
-0.0408575
-0.0413349
-0.0400724
-0.0331493
-0.0121509
0.0224982
0.0736459
-0.0575933
-0.0470338
-0.0422524
-0.0401776
-0.0390667
-0.0355577
-0.0256898
-0.00314784
0.0302685
0.0731822
-0.0890966
-0.0612577
-0.0519959
-0.0463782
-0.0436484
-0.0390733
-0.0263871
0.00464976
0.0516369
0.150867
-0.0814249
-0.0572821
-0.0505698
-0.0473777
-0.0470254
-0.0451901
-0.0362259
-0.00613407
0.0452718
0.162518
-0.0750112
-0.0524486
-0.0472983
-0.0466398
-0.0492233
-0.0500429
-0.0431456
-0.0114213
0.0463343
0.171591
-0.0710112
-0.0491455
-0.0448887
-0.0457554
-0.0500383
-0.0523227
-0.0462459
-0.0132278
0.0476478
0.177308
-0.0691631
-0.0475646
-0.0437286
-0.0452688
-0.0502546
-0.0531205
-0.0473314
-0.0137933
0.0483708
0.179792
-0.0691631
-0.0475646
-0.0437286
-0.0452688
-0.0502546
-0.0531205
-0.0473314
-0.0137933
0.0483708
0.179792
-0.0710112
-0.0491455
-0.0448887
-0.0457554
-0.0500383
-0.0523227
-0.0462459
-0.0132278
0.0476478
0.177308
-0.0750112
-0.0524486
-0.0472983
-0.0466398
-0.0492233
-0.0500429
-0.0431456
-0.0114213
0.0463343
0.171591
-0.0814249
-0.0572821
-0.0505697
-0.0473777
-0.0470254
-0.0451901
-0.0362259
-0.00613407
0.0452718
0.162518
-0.0890966
-0.0612577
-0.0519959
-0.0463782
-0.0436484
-0.0390733
-0.0263871
0.00464976
0.0516369
0.150867
-0.199331
-0.0739122
-0.0489033
-0.0404472
-0.036162
-0.0294033
-0.0124854
0.032761
0.119014
0.324653
-0.18702
-0.0611592
-0.0410736
-0.0370492
-0.0364371
-0.0330135
-0.0184908
0.0295929
0.129527
0.359298
-0.178102
-0.0522055
-0.0343919
-0.0334612
-0.0360488
-0.0350075
-0.0214667
0.0297152
0.13886
0.380176
-0.172949
-0.0471341
-0.0303449
-0.0311391
-0.0355598
-0.0358309
-0.0226131
0.0302076
0.143491
0.390214
-0.170685
-0.0449524
-0.0285906
-0.0301115
-0.0353035
-0.0361327
-0.0230472
0.030424
0.145258
0.394041
-0.170684
-0.0449524
-0.0285906
-0.0301115
-0.0353035
-0.0361327
-0.0230472
0.030424
0.145258
0.394041
-0.172949
-0.0471341
-0.0303448
-0.0311391
-0.0355598
-0.0358309
-0.0226131
0.0302076
0.143491
0.390214
-0.178102
-0.0522055
-0.0343919
-0.0334612
-0.0360488
-0.0350075
-0.0214667
0.0297152
0.13886
0.380176
-0.18702
-0.0611592
-0.0410736
-0.0370492
-0.0364371
-0.0330135
-0.0184908
0.0295929
0.129527
0.359298
-0.199331
-0.0739121
-0.0489033
-0.0404472
-0.036162
-0.0294033
-0.0124854
0.032761
0.119014
0.324653
)
;

boundaryField
{
    top
    {
        type            zeroGradient;
    }
    others
    {
        type            zeroGradient;
    }
}


// ************************************************************************* //
