/*--------------------------------*- C++ -*----------------------------------*\
  =========                 |
  \\      /  F ield         | OpenFOAM: The Open Source CFD Toolbox
   \\    /   O peration     | Website:  https://openfoam.org
    \\  /    A nd           | Version:  9
     \\/     M anipulation  |
\*---------------------------------------------------------------------------*/
FoamFile
{
    format      ascii;
    class       surfaceScalarField;
    location    "0.89";
    object      phi;
}
// * * * * * * * * * * * * * * * * * * * * * * * * * * * * * * * * * * * * * //

dimensions      [0 3 -1 0 0 0 0];

internalField   nonuniform List<scalar> 
2700
(
-5.65075e-08
-1.10389e-07
1.66958e-07
-2.99373e-07
-1.24841e-07
3.67707e-07
-6.24578e-07
-1.25521e-07
4.50726e-07
-9.46992e-07
-1.46759e-07
4.69173e-07
-1.17595e-06
-1.99763e-07
4.28722e-07
-1.2109e-06
-2.78758e-07
3.13704e-07
-9.84663e-07
-3.55279e-07
1.29046e-07
-5.41336e-07
-3.78625e-07
-6.47023e-08
-1.02769e-07
-3.01922e-07
-1.36645e-07
-9.99863e-08
-2.78317e-09
-1.56108e-07
-2.41268e-07
2.86987e-07
-6.86414e-07
-3.22292e-07
7.27755e-07
-1.36124e-06
-3.43894e-07
8.93203e-07
-1.9959e-06
-3.84385e-07
8.72281e-07
-2.41469e-06
-4.67879e-07
6.86911e-07
-2.43914e-06
-5.8269e-07
3.28372e-07
-1.96001e-06
-6.80468e-07
-1.53933e-07
-1.08225e-06
-6.86374e-07
-5.70018e-07
-2.33392e-07
-5.42602e-07
-6.08175e-07
-2.19867e-07
-1.13512e-07
-2.36977e-07
-2.64332e-07
2.60041e-07
-9.66725e-07
-3.77309e-07
7.84765e-07
-1.86879e-06
-4.1088e-07
9.69045e-07
-2.69109e-06
-4.52337e-07
8.90251e-07
-3.2031e-06
-5.28731e-07
5.72868e-07
-3.18294e-06
-6.29504e-07
2.66502e-08
-2.50229e-06
-7.01277e-07
-6.59842e-07
-1.32818e-06
-6.8684e-07
-1.17364e-06
-2.48736e-07
-5.41473e-07
-1.08058e-06
-2.38341e-07
-2.30262e-07
-2.93532e-07
-1.67973e-07
1.97172e-07
-1.157e-06
-2.46662e-07
7.32822e-07
-2.20665e-06
-2.70742e-07
9.09508e-07
-3.14372e-06
-2.95934e-07
7.80673e-07
-3.70231e-06
-3.3917e-07
3.69027e-07
-3.62348e-06
-3.93409e-07
-3.14933e-07
-2.79229e-06
-4.29759e-07
-1.1027e-06
-1.42226e-06
-4.14729e-07
-1.64214e-06
-2.1966e-07
-3.26872e-07
-1.4172e-06
-1.49615e-07
-3.08386e-07
-3.232e-07
1.48212e-12
1.55226e-07
-1.25442e-06
1.37369e-12
6.84554e-07
-2.3773e-06
9.08049e-13
8.52141e-07
-3.36853e-06
6.20999e-13
6.9529e-07
-3.94355e-06
4.03767e-13
2.35853e-07
-3.82993e-06
2.76865e-13
-5.07027e-07
-2.91665e-06
2.05574e-13
-1.34304e-06
-1.44942e-06
1.66346e-13
-1.88196e-06
-1.94932e-07
1.32844e-13
-1.58136e-06
1.07408e-13
-3.44547e-07
-3.232e-07
1.67976e-07
1.55225e-07
-1.25442e-06
2.46665e-07
6.84553e-07
-2.3773e-06
2.70743e-07
8.52141e-07
-3.36853e-06
2.95935e-07
6.9529e-07
-3.94355e-06
3.39171e-07
2.35853e-07
-3.82993e-06
3.93409e-07
-5.07027e-07
-2.91665e-06
4.2976e-07
-1.34304e-06
-1.44942e-06
4.14729e-07
-1.88196e-06
-1.94932e-07
3.26873e-07
-1.58136e-06
1.49616e-07
-3.44547e-07
-2.93532e-07
2.64338e-07
1.97171e-07
-1.157e-06
3.77313e-07
7.32822e-07
-2.20665e-06
4.10882e-07
9.09508e-07
-3.14372e-06
4.52338e-07
7.80672e-07
-3.70231e-06
5.28732e-07
3.69027e-07
-3.62348e-06
6.29504e-07
-3.14933e-07
-2.79229e-06
7.01277e-07
-1.1027e-06
-1.42226e-06
6.8684e-07
-1.64214e-06
-2.1966e-07
5.41473e-07
-1.4172e-06
2.38341e-07
-3.08386e-07
-2.3698e-07
2.41279e-07
2.60039e-07
-9.66727e-07
3.22296e-07
7.84763e-07
-1.86879e-06
3.43897e-07
9.69045e-07
-2.69109e-06
3.84387e-07
8.90251e-07
-3.2031e-06
4.6788e-07
5.72868e-07
-3.18294e-06
5.8269e-07
2.66502e-08
-2.50229e-06
6.80469e-07
-6.59842e-07
-1.32818e-06
6.86374e-07
-1.17364e-06
-2.48736e-07
5.42602e-07
-1.08058e-06
2.19867e-07
-2.30262e-07
-1.56115e-07
1.10413e-07
2.86981e-07
-6.86418e-07
1.24847e-07
7.27752e-07
-1.36125e-06
1.25523e-07
8.93202e-07
-1.9959e-06
1.4676e-07
8.72281e-07
-2.4147e-06
1.99764e-07
6.86911e-07
-2.43914e-06
2.78758e-07
3.28372e-07
-1.96001e-06
3.55279e-07
-1.53933e-07
-1.08225e-06
3.78626e-07
-5.70018e-07
-2.33392e-07
3.01922e-07
-6.08175e-07
9.99863e-08
-1.13512e-07
-5.65259e-08
1.66938e-07
-2.99381e-07
3.67701e-07
-6.24582e-07
4.50724e-07
-9.46994e-07
4.69172e-07
-1.17595e-06
4.28721e-07
-1.2109e-06
3.13703e-07
-9.84664e-07
1.29045e-07
-5.41336e-07
-6.47024e-08
-1.02769e-07
-1.36645e-07
-2.78359e-09
-2.17118e-07
-2.88459e-07
6.72535e-07
-7.17163e-07
-3.87665e-07
1.25542e-06
-1.32353e-06
-4.0257e-07
1.45966e-06
-1.90431e-06
-4.08155e-07
1.45811e-06
-2.31163e-06
-4.37e-07
1.27303e-06
-2.38131e-06
-4.92187e-07
8.75579e-07
-1.99672e-06
-5.4524e-07
2.89694e-07
-1.20062e-06
-5.37121e-07
-3.23681e-07
-3.31321e-07
-3.99049e-07
-6.06898e-07
-8.72919e-08
-2.46813e-07
-6.01473e-07
-5.30003e-07
1.13e-06
-1.82778e-06
-7.71652e-07
2.33804e-06
-3.23789e-06
-8.15603e-07
2.71635e-06
-4.49881e-06
-8.25045e-07
2.55009e-06
-5.29357e-06
-8.65093e-07
1.90976e-06
-5.32171e-06
-9.38233e-07
8.02554e-07
-4.40219e-06
-9.99944e-07
-6.18743e-07
-2.67112e-06
-9.56066e-07
-1.88215e-06
-8.2267e-07
-7.22232e-07
-2.13344e-06
-2.36961e-07
-7.86513e-07
-9.02198e-07
-5.41793e-07
1.17403e-06
-2.66252e-06
-8.22085e-07
2.59552e-06
-4.61878e-06
-8.76653e-07
2.98635e-06
-6.28994e-06
-8.83816e-07
2.62018e-06
-7.25524e-06
-9.13682e-07
1.58676e-06
-7.16674e-06
-9.69129e-07
-3.09576e-08
-5.819e-06
-9.99432e-07
-2.00809e-06
-3.46293e-06
-9.36882e-07
-3.54889e-06
-1.03886e-06
-7.1585e-07
-3.51103e-06
-2.76071e-07
-1.23001e-06
-1.10505e-06
-3.33951e-07
1.09438e-06
-3.22426e-06
-5.16794e-07
2.54674e-06
-5.52894e-06
-5.5314e-07
2.89068e-06
-7.4349e-06
-5.55743e-07
2.35856e-06
-8.46408e-06
-5.68608e-07
1.05313e-06
-8.24159e-06
-5.9395e-07
-9.12599e-07
-6.58786e-06
-6.00847e-07
-3.15501e-06
-3.84018e-06
-5.56961e-07
-4.76975e-06
-1.10385e-06
-4.28961e-07
-4.44042e-06
-1.78095e-07
-1.51021e-06
-1.20709e-06
1.26939e-12
1.02836e-06
-3.50695e-06
1.2607e-12
2.46762e-06
-5.98127e-06
9.10485e-13
2.77332e-06
-7.99203e-06
6.84882e-13
2.1503e-06
-9.03687e-06
4.97636e-13
7.12085e-07
-8.72995e-06
3.71203e-13
-1.4079e-06
-6.91763e-06
2.89732e-13
-3.7562e-06
-3.98396e-06
2.25277e-13
-5.3726e-06
-1.11469e-06
1.70701e-13
-4.87959e-06
1.38192e-13
-1.63734e-06
-1.20709e-06
3.33954e-07
1.02836e-06
-3.50695e-06
5.16796e-07
2.46762e-06
-5.98127e-06
5.53142e-07
2.77332e-06
-7.99203e-06
5.55745e-07
2.1503e-06
-9.03687e-06
5.68609e-07
7.12085e-07
-8.72995e-06
5.93951e-07
-1.4079e-06
-6.91763e-06
6.00847e-07
-3.7562e-06
-3.98396e-06
5.56962e-07
-5.3726e-06
-1.11469e-06
4.28961e-07
-4.87959e-06
1.78095e-07
-1.63734e-06
-1.10505e-06
5.41796e-07
1.09438e-06
-3.22426e-06
8.22088e-07
2.54674e-06
-5.52894e-06
8.76655e-07
2.89067e-06
-7.4349e-06
8.83817e-07
2.35856e-06
-8.46408e-06
9.13683e-07
1.05313e-06
-8.24159e-06
9.69129e-07
-9.126e-07
-6.58786e-06
9.99432e-07
-3.15501e-06
-3.84018e-06
9.36882e-07
-4.76975e-06
-1.10385e-06
7.1585e-07
-4.44042e-06
2.76071e-07
-1.51021e-06
-9.02199e-07
5.30008e-07
1.17403e-06
-2.66252e-06
7.71655e-07
2.59552e-06
-4.61878e-06
8.15604e-07
2.98635e-06
-6.28994e-06
8.25046e-07
2.62018e-06
-7.25524e-06
8.65094e-07
1.58676e-06
-7.16674e-06
9.38234e-07
-3.09578e-08
-5.819e-06
9.99944e-07
-2.00809e-06
-3.46293e-06
9.56067e-07
-3.54889e-06
-1.03886e-06
7.22232e-07
-3.51103e-06
2.36961e-07
-1.23001e-06
-6.01476e-07
2.88466e-07
1.13e-06
-1.82778e-06
3.87668e-07
2.33804e-06
-3.2379e-06
4.02572e-07
2.71635e-06
-4.49882e-06
4.08156e-07
2.55009e-06
-5.29357e-06
4.37e-07
1.90976e-06
-5.32171e-06
4.92187e-07
8.02553e-07
-4.40219e-06
5.45241e-07
-6.18743e-07
-2.67112e-06
5.37121e-07
-1.88215e-06
-8.2267e-07
3.99049e-07
-2.13344e-06
8.72919e-08
-7.86513e-07
-2.17123e-07
6.72527e-07
-7.17167e-07
1.25541e-06
-1.32353e-06
1.45966e-06
-1.90431e-06
1.45811e-06
-2.31163e-06
1.27303e-06
-2.38132e-06
8.75579e-07
-1.99672e-06
2.89694e-07
-1.20062e-06
-3.23681e-07
-3.31321e-07
-6.06898e-07
-2.46813e-07
-3.30028e-07
-4.38799e-07
1.44136e-06
-9.99917e-07
-5.9159e-07
2.51689e-06
-1.78606e-06
-5.90487e-07
2.83629e-06
-2.5558e-06
-5.41998e-07
2.76985e-06
-3.15257e-06
-5.04317e-07
2.37413e-06
-3.36915e-06
-5.03116e-07
1.59527e-06
-3.00054e-06
-5.26401e-07
4.47484e-07
-1.98548e-06
-5.23593e-07
-8.15151e-07
-6.74771e-07
-3.95456e-07
-1.52215e-06
-4.04591e-08
-8.81125e-07
-9.59181e-07
-7.67696e-07
2.41808e-06
-2.70922e-06
-1.10708e-06
4.60357e-06
-4.64498e-06
-1.11023e-06
5.17186e-06
-6.37682e-06
-1.00661e-06
4.74654e-06
-7.54654e-06
-9.09352e-07
3.48452e-06
-7.7774e-06
-8.60239e-07
1.39053e-06
-6.74699e-06
-8.45952e-07
-1.3296e-06
-4.43621e-06
-8.06533e-07
-3.90999e-06
-1.59014e-06
-6.24633e-07
-4.75033e-06
-1.55592e-07
-2.26152e-06
-1.46472e-06
-7.61903e-07
2.63296e-06
-4.03632e-06
-1.13761e-06
5.19766e-06
-6.76761e-06
-1.14172e-06
5.74913e-06
-9.06858e-06
-1.02217e-06
4.93672e-06
-1.0465e-05
-8.98469e-07
2.97225e-06
-1.05336e-05
-8.12109e-07
-1.04354e-08
-8.94614e-06
-7.54305e-07
-3.68721e-06
-5.77578e-06
-6.98849e-07
-6.82694e-06
-2.03445e-06
-5.57008e-07
-7.31998e-06
-1.90786e-07
-3.22927e-06
-1.80865e-06
-4.61683e-07
2.6028e-06
-4.93117e-06
-7.0094e-07
5.23259e-06
-8.15844e-06
-7.02641e-07
5.67887e-06
-1.07612e-05
-6.22722e-07
4.56185e-06
-1.22108e-05
-5.35776e-07
2.1401e-06
-1.20814e-05
-4.66685e-07
-1.38749e-06
-1.00998e-05
-4.17878e-07
-5.47306e-06
-6.41791e-06
-3.81439e-07
-8.76901e-06
-2.20904e-06
-3.11768e-07
-8.89453e-06
-1.2363e-07
-3.7864e-06
-1.9811e-06
8.47657e-13
2.54778e-06
-5.37788e-06
9.39399e-13
5.16345e-06
-8.83988e-06
7.1312e-13
5.53268e-06
-1.15666e-05
5.61471e-13
4.25427e-06
-1.30087e-05
4.14145e-13
1.61847e-06
-1.27568e-05
2.99576e-13
-2.12651e-06
-1.05757e-05
2.33161e-13
-6.35518e-06
-6.664e-06
1.87224e-13
-9.66573e-06
-2.26401e-06
1.58618e-13
-9.59134e-06
1.33516e-13
-4.02498e-06
-1.9811e-06
4.61685e-07
2.54778e-06
-5.37788e-06
7.00942e-07
5.16345e-06
-8.83988e-06
7.02643e-07
5.53268e-06
-1.15666e-05
6.22723e-07
4.25427e-06
-1.30087e-05
5.35776e-07
1.61847e-06
-1.27568e-05
4.66685e-07
-2.12651e-06
-1.05757e-05
4.17878e-07
-6.35518e-06
-6.664e-06
3.81439e-07
-9.66573e-06
-2.26401e-06
3.11769e-07
-9.59134e-06
1.2363e-07
-4.02498e-06
-1.80865e-06
7.61905e-07
2.6028e-06
-4.93117e-06
1.13761e-06
5.23259e-06
-8.15844e-06
1.14172e-06
5.67887e-06
-1.07612e-05
1.02217e-06
4.56185e-06
-1.22108e-05
8.9847e-07
2.1401e-06
-1.20814e-05
8.12109e-07
-1.38749e-06
-1.00998e-05
7.54306e-07
-5.47306e-06
-6.41791e-06
6.98849e-07
-8.76901e-06
-2.20904e-06
5.57008e-07
-8.89453e-06
1.90786e-07
-3.7864e-06
-1.46472e-06
7.67698e-07
2.63295e-06
-4.03632e-06
1.10708e-06
5.19766e-06
-6.76761e-06
1.11023e-06
5.74912e-06
-9.06859e-06
1.00661e-06
4.93672e-06
-1.0465e-05
9.09353e-07
2.97225e-06
-1.05336e-05
8.60239e-07
-1.04357e-08
-8.94614e-06
8.45953e-07
-3.68721e-06
-5.77578e-06
8.06533e-07
-6.82694e-06
-2.03445e-06
6.24633e-07
-7.31999e-06
1.55592e-07
-3.22927e-06
-9.59183e-07
4.38801e-07
2.41808e-06
-2.70922e-06
5.91591e-07
4.60357e-06
-4.64498e-06
5.90487e-07
5.17186e-06
-6.37682e-06
5.41998e-07
4.74654e-06
-7.54655e-06
5.04317e-07
3.48452e-06
-7.7774e-06
5.03116e-07
1.39053e-06
-6.74699e-06
5.26401e-07
-1.3296e-06
-4.43621e-06
5.23593e-07
-3.90999e-06
-1.59014e-06
3.95456e-07
-4.75033e-06
4.04592e-08
-2.26152e-06
-3.3003e-07
1.44136e-06
-9.99919e-07
2.51689e-06
-1.78606e-06
2.83629e-06
-2.5558e-06
2.76985e-06
-3.15258e-06
2.37413e-06
-3.36915e-06
1.59527e-06
-3.00054e-06
4.47483e-07
-1.98548e-06
-8.15151e-07
-6.74771e-07
-1.52215e-06
-8.81125e-07
-4.11333e-07
-5.68172e-07
2.42087e-06
-1.1926e-06
-7.42371e-07
4.04053e-06
-2.10342e-06
-6.83824e-07
4.43093e-06
-3.05232e-06
-5.29949e-07
4.2487e-06
-3.91302e-06
-3.72258e-07
3.60709e-06
-4.44484e-06
-2.71484e-07
2.39858e-06
-4.30337e-06
-2.52286e-07
5.58301e-07
-3.18962e-06
-3.06033e-07
-1.62287e-06
-1.31327e-06
-2.94568e-07
-3.10393e-06
1.27105e-09
-2.19566e-06
-1.23475e-06
-9.68222e-07
4.05288e-06
-3.37215e-06
-1.3442e-06
7.34281e-06
-5.70244e-06
-1.22595e-06
8.04427e-06
-7.86109e-06
-9.05095e-07
7.28034e-06
-9.52147e-06
-5.56866e-07
5.32951e-06
-1.025e-05
-2.96116e-07
2.14368e-06
-9.50305e-06
-1.83134e-07
-2.14569e-06
-6.86789e-06
-2.41258e-07
-6.60993e-06
-2.85211e-06
-3.00924e-07
-8.75975e-06
-4.73009e-08
-5.06507e-06
-1.90272e-06
-9.4293e-07
4.51039e-06
-5.08473e-06
-1.34838e-06
8.38384e-06
-8.39063e-06
-1.21576e-06
9.04484e-06
-1.12243e-05
-8.57434e-07
7.72276e-06
-1.31567e-05
-4.58415e-07
4.80612e-06
-1.37056e-05
-1.36366e-07
3.78797e-07
-1.23655e-05
1.48598e-08
-5.22531e-06
-8.75368e-06
-4.12418e-08
-1.06388e-05
-3.58218e-06
-1.6474e-07
-1.26277e-05
-6.44781e-08
-6.79427e-06
-2.35505e-06
-5.64419e-07
4.57934e-06
-6.22675e-06
-8.18107e-07
8.57402e-06
-1.01145e-05
-7.3062e-07
9.0815e-06
-1.32616e-05
-4.9782e-07
7.34928e-06
-1.52016e-05
-2.36693e-07
3.85837e-06
-1.55118e-05
-2.19755e-08
-1.19162e-06
-1.37399e-05
7.74689e-08
-7.3076e-06
-9.59399e-06
3.94581e-08
-1.29956e-05
-3.87713e-06
-5.72352e-08
-1.47189e-05
-4.07867e-08
-7.68723e-06
-2.57929e-06
5.61981e-13
4.56265e-06
-6.78736e-06
6.86282e-13
8.55342e-06
-1.09378e-05
5.54065e-13
8.95246e-06
-1.41937e-05
4.60628e-13
7.01237e-06
-1.60863e-05
3.46697e-13
3.27434e-06
-1.62398e-05
2.58177e-13
-1.99492e-06
-1.42619e-05
1.93454e-13
-8.25566e-06
-9.89855e-06
1.55064e-13
-1.39896e-05
-3.97832e-06
1.42621e-13
-1.55688e-05
1.20887e-13
-8.04409e-06
-2.57929e-06
5.6442e-07
4.56265e-06
-6.78736e-06
8.18109e-07
8.55342e-06
-1.09378e-05
7.30621e-07
8.95246e-06
-1.41937e-05
4.97821e-07
7.01237e-06
-1.60863e-05
2.36694e-07
3.27434e-06
-1.62398e-05
2.1976e-08
-1.99492e-06
-1.42619e-05
-7.74685e-08
-8.25566e-06
-9.89855e-06
-3.94578e-08
-1.39896e-05
-3.97832e-06
5.72355e-08
-1.55688e-05
4.07869e-08
-8.04409e-06
-2.35505e-06
9.42931e-07
4.57934e-06
-6.22675e-06
1.34838e-06
8.57402e-06
-1.01145e-05
1.21576e-06
9.0815e-06
-1.32616e-05
8.57434e-07
7.34928e-06
-1.52016e-05
4.58416e-07
3.85837e-06
-1.55118e-05
1.36366e-07
-1.19162e-06
-1.37399e-05
-1.48595e-08
-7.3076e-06
-9.59399e-06
4.12421e-08
-1.29956e-05
-3.87713e-06
1.6474e-07
-1.47189e-05
6.44783e-08
-7.68723e-06
-1.90272e-06
9.68223e-07
4.51038e-06
-5.08473e-06
1.3442e-06
8.38384e-06
-8.39064e-06
1.22595e-06
9.04484e-06
-1.12243e-05
9.05096e-07
7.72276e-06
-1.31567e-05
5.56867e-07
4.80612e-06
-1.37056e-05
2.96116e-07
3.78796e-07
-1.23655e-05
1.83134e-07
-5.22531e-06
-8.75368e-06
2.41258e-07
-1.06388e-05
-3.58218e-06
3.00924e-07
-1.26277e-05
4.7301e-08
-6.79427e-06
-1.23475e-06
5.68173e-07
4.05287e-06
-3.37215e-06
7.42371e-07
7.3428e-06
-5.70244e-06
6.83824e-07
8.04427e-06
-7.86109e-06
5.29949e-07
7.28034e-06
-9.52147e-06
3.72258e-07
5.32951e-06
-1.025e-05
2.71484e-07
2.14368e-06
-9.50305e-06
2.52286e-07
-2.14569e-06
-6.86789e-06
3.06033e-07
-6.60993e-06
-2.85212e-06
2.94568e-07
-8.75975e-06
-1.27096e-09
-5.06507e-06
-4.11334e-07
2.42086e-06
-1.1926e-06
4.04053e-06
-2.10342e-06
4.43093e-06
-3.05232e-06
4.2487e-06
-3.91302e-06
3.60709e-06
-4.44484e-06
2.39858e-06
-4.30337e-06
5.58301e-07
-3.18962e-06
-1.62287e-06
-1.31327e-06
-3.10393e-06
-2.19566e-06
-5.00172e-07
-6.65378e-07
3.58642e-06
-1.33424e-06
-8.24267e-07
5.69887e-06
-2.288e-06
-6.57115e-07
6.0418e-06
-3.36973e-06
-3.31583e-07
5.66201e-06
-4.54458e-06
3.7611e-08
4.74433e-06
-5.57461e-06
3.17957e-07
3.11065e-06
-5.94725e-06
4.15534e-07
5.15411e-07
-4.97836e-06
2.55823e-07
-2.84758e-06
-2.46678e-06
7.72684e-09
-5.62324e-06
1.1021e-08
-4.67347e-06
-1.46449e-06
-1.10977e-06
5.96176e-06
-3.8302e-06
-1.45623e-06
1.03405e-05
-6.36326e-06
-1.12678e-06
1.1047e-05
-8.82597e-06
-4.70825e-07
9.88229e-06
-1.10092e-05
2.58653e-07
7.29166e-06
-1.24908e-05
8.40371e-07
3.1029e-06
-1.24885e-05
1.07133e-06
-2.80377e-06
-1.00129e-05
8.0166e-07
-9.6314e-06
-4.86078e-06
2.52269e-07
-1.41564e-05
1.44601e-08
-9.92929e-06
-2.227e-06
-1.06303e-06
6.69064e-06
-5.76216e-06
-1.43158e-06
1.18944e-05
-9.34985e-06
-1.07496e-06
1.25807e-05
-1.25025e-05
-3.67794e-07
1.07723e-05
-1.4929e-05
4.10158e-07
7.08114e-06
-1.61972e-05
1.02096e-06
1.46643e-06
-1.56061e-05
1.2514e-06
-5.99648e-06
-1.22027e-05
9.58094e-07
-1.41986e-05
-5.85276e-06
3.65544e-07
-1.90909e-05
2.10439e-08
-1.26536e-05
-2.73092e-06
-6.29204e-07
6.87645e-06
-7.01438e-06
-8.5664e-07
1.22825e-05
-1.11887e-05
-6.28484e-07
1.28093e-05
-1.45935e-05
-1.80454e-07
1.05667e-05
-1.69373e-05
3.07285e-07
6.3051e-06
-1.78692e-05
6.85597e-07
7.56223e-08
-1.68602e-05
8.07882e-07
-7.87312e-06
-1.30276e-05
6.12542e-07
-1.64826e-05
-6.22346e-06
2.43569e-07
-2.14011e-05
1.64144e-08
-1.39061e-05
-2.97481e-06
3.64123e-13
6.90825e-06
-7.61153e-06
4.77423e-13
1.23335e-05
-1.20317e-05
4.16193e-13
1.27442e-05
-1.5492e-05
3.512e-13
1.02922e-05
-1.77206e-05
2.48492e-13
5.81024e-06
-1.84585e-05
1.6174e-13
-5.71416e-07
-1.72611e-05
1.17547e-13
-8.64523e-06
-1.32906e-05
1.13168e-13
-1.73475e-05
-6.35149e-06
1.32968e-13
-2.22643e-05
1.20444e-13
-1.43792e-05
-2.97481e-06
6.29205e-07
6.90825e-06
-7.61153e-06
8.56641e-07
1.23335e-05
-1.20317e-05
6.28485e-07
1.27442e-05
-1.5492e-05
1.80454e-07
1.02922e-05
-1.77206e-05
-3.07285e-07
5.81024e-06
-1.84585e-05
-6.85596e-07
-5.71416e-07
-1.72611e-05
-8.07881e-07
-8.64523e-06
-1.32906e-05
-6.12541e-07
-1.73475e-05
-6.35149e-06
-2.43569e-07
-2.22643e-05
-1.64141e-08
-1.43792e-05
-2.73092e-06
1.06303e-06
6.87644e-06
-7.01438e-06
1.43158e-06
1.22825e-05
-1.11887e-05
1.07496e-06
1.28093e-05
-1.45935e-05
3.67795e-07
1.05667e-05
-1.69373e-05
-4.10158e-07
6.3051e-06
-1.78692e-05
-1.02096e-06
7.56222e-08
-1.68602e-05
-1.2514e-06
-7.87312e-06
-1.30276e-05
-9.58094e-07
-1.64826e-05
-6.22346e-06
-3.65544e-07
-2.14011e-05
-2.10437e-08
-1.39061e-05
-2.227e-06
1.10977e-06
6.69064e-06
-5.76216e-06
1.45623e-06
1.18944e-05
-9.34985e-06
1.12678e-06
1.25807e-05
-1.25025e-05
4.70826e-07
1.07723e-05
-1.4929e-05
-2.58652e-07
7.08114e-06
-1.61972e-05
-8.40371e-07
1.46643e-06
-1.56061e-05
-1.07133e-06
-5.99648e-06
-1.22027e-05
-8.0166e-07
-1.41986e-05
-5.85276e-06
-2.52269e-07
-1.90909e-05
-1.446e-08
-1.26536e-05
-1.46449e-06
6.65378e-07
5.96175e-06
-3.8302e-06
8.24267e-07
1.03405e-05
-6.36326e-06
6.57115e-07
1.1047e-05
-8.82597e-06
3.31583e-07
9.88229e-06
-1.10092e-05
-3.7611e-08
7.29166e-06
-1.24908e-05
-3.17957e-07
3.1029e-06
-1.24885e-05
-4.15533e-07
-2.80377e-06
-1.00129e-05
-2.55823e-07
-9.6314e-06
-4.86078e-06
-7.72771e-09
-1.41564e-05
-1.10208e-08
-9.92929e-06
-5.00172e-07
3.58642e-06
-1.33424e-06
5.69886e-06
-2.288e-06
6.0418e-06
-3.36973e-06
5.66201e-06
-4.54458e-06
4.74433e-06
-5.57461e-06
3.11065e-06
-5.94725e-06
5.15411e-07
-4.97836e-06
-2.84758e-06
-2.46678e-06
-5.62324e-06
-4.67347e-06
-6.88552e-07
-7.34163e-07
5.00913e-06
-1.49451e-06
-8.34649e-07
7.33947e-06
-2.32399e-06
-5.03934e-07
7.37522e-06
-3.38219e-06
6.98372e-08
6.65038e-06
-4.79443e-06
7.20556e-07
5.43601e-06
-6.42215e-06
1.2866e-06
3.45177e-06
-7.62886e-06
1.54325e-06
1.78874e-07
-7.25375e-06
1.23647e-06
-4.45917e-06
-4.2928e-06
4.95914e-07
-9.0801e-06
-6.47821e-08
-8.90149e-06
-1.73622e-06
-1.19229e-06
8.1561e-06
-4.1074e-06
-1.44555e-06
1.33226e-05
-6.47443e-06
-8.28256e-07
1.37383e-05
-8.85735e-06
2.52462e-07
1.20826e-05
-1.12904e-05
1.45671e-06
8.98852e-06
-1.34821e-05
2.44552e-06
4.13572e-06
-1.45744e-05
2.82581e-06
-2.99406e-06
-1.30136e-05
2.24968e-06
-1.22054e-05
-7.42782e-06
9.50701e-07
-2.0197e-05
-6.05831e-08
-1.73613e-05
-2.49679e-06
-1.12024e-06
9.11538e-06
-6.02404e-06
-1.39546e-06
1.53715e-05
-9.37523e-06
-7.55387e-07
1.5859e-05
-1.23137e-05
3.56472e-07
1.36067e-05
-1.4803e-05
1.559e-06
9.4682e-06
-1.66091e-05
2.48606e-06
3.23199e-06
-1.7065e-05
2.74882e-06
-5.46355e-06
-1.47799e-05
2.10566e-06
-1.63398e-05
-8.36573e-06
8.68253e-07
-2.54226e-05
-3.24657e-08
-2.10475e-05
-2.97486e-06
-6.54743e-07
9.38581e-06
-7.20602e-06
-8.24255e-07
1.59425e-05
-1.10516e-05
-4.26395e-07
1.63259e-05
-1.41002e-05
2.57534e-07
1.37142e-05
-1.63337e-05
9.77768e-07
9.11986e-06
-1.76851e-05
1.49897e-06
2.41412e-06
-1.77177e-05
1.61011e-06
-6.7019e-06
-1.52029e-05
1.19263e-06
-1.80843e-05
-8.65514e-06
4.77051e-07
-2.75576e-05
-1.07825e-08
-2.25829e-05
-3.19727e-06
2.44222e-13
9.45077e-06
-7.74576e-06
3.35182e-13
1.60577e-05
-1.17763e-05
3.15749e-13
1.63483e-05
-1.47975e-05
2.57585e-13
1.3571e-05
-1.68377e-05
1.66988e-13
8.82817e-06
-1.79346e-05
1.06242e-13
2.02448e-06
-1.78161e-05
1.02463e-13
-7.15369e-06
-1.52876e-05
1.37747e-13
-1.86834e-05
-8.76005e-06
1.72666e-13
-2.83148e-05
1.43163e-13
-2.315e-05
-3.19727e-06
6.54744e-07
9.45077e-06
-7.74576e-06
8.24255e-07
1.60577e-05
-1.17763e-05
4.26396e-07
1.63483e-05
-1.47975e-05
-2.57533e-07
1.3571e-05
-1.68377e-05
-9.77768e-07
8.82817e-06
-1.79346e-05
-1.49897e-06
2.02448e-06
-1.78161e-05
-1.61011e-06
-7.15369e-06
-1.52876e-05
-1.19263e-06
-1.86834e-05
-8.76005e-06
-4.7705e-07
-2.83148e-05
1.07828e-08
-2.315e-05
-2.97486e-06
1.12024e-06
9.38581e-06
-7.20602e-06
1.39546e-06
1.59425e-05
-1.10516e-05
7.55388e-07
1.63259e-05
-1.41002e-05
-3.56472e-07
1.37142e-05
-1.63337e-05
-1.559e-06
9.11986e-06
-1.76851e-05
-2.48606e-06
2.41412e-06
-1.77177e-05
-2.74882e-06
-6.7019e-06
-1.52029e-05
-2.10566e-06
-1.80843e-05
-8.65514e-06
-8.68253e-07
-2.75576e-05
3.24659e-08
-2.25829e-05
-2.49679e-06
1.19229e-06
9.11538e-06
-6.02404e-06
1.44555e-06
1.53715e-05
-9.37523e-06
8.28257e-07
1.5859e-05
-1.23137e-05
-2.52462e-07
1.36067e-05
-1.4803e-05
-1.45671e-06
9.4682e-06
-1.66091e-05
-2.44552e-06
3.23199e-06
-1.7065e-05
-2.82581e-06
-5.46355e-06
-1.47799e-05
-2.24968e-06
-1.63398e-05
-8.36573e-06
-9.50701e-07
-2.54226e-05
6.05832e-08
-2.10475e-05
-1.73622e-06
7.34163e-07
8.1561e-06
-4.1074e-06
8.34649e-07
1.33226e-05
-6.47443e-06
5.03934e-07
1.37383e-05
-8.85735e-06
-6.98372e-08
1.20826e-05
-1.12904e-05
-7.20556e-07
8.98852e-06
-1.34821e-05
-1.2866e-06
4.13572e-06
-1.45744e-05
-1.54325e-06
-2.99406e-06
-1.30136e-05
-1.23647e-06
-1.22054e-05
-7.42782e-06
-4.95914e-07
-2.0197e-05
6.47822e-08
-1.73613e-05
-6.88553e-07
5.00913e-06
-1.49451e-06
7.33947e-06
-2.32399e-06
7.37522e-06
-3.38219e-06
6.65038e-06
-4.79443e-06
5.43601e-06
-6.42215e-06
3.45177e-06
-7.62886e-06
1.78874e-07
-7.25375e-06
-4.45917e-06
-4.2928e-06
-9.0801e-06
-8.90149e-06
-1.21879e-06
-8.28956e-07
7.05688e-06
-1.81269e-06
-8.38406e-07
8.77177e-06
-2.16224e-06
-3.0689e-07
8.03167e-06
-2.80465e-06
5.44338e-07
6.74844e-06
-4.12006e-06
1.52729e-06
5.22414e-06
-6.17543e-06
2.45672e-06
3.05042e-06
-8.42845e-06
2.985e-06
-5.531e-07
-9.23673e-06
2.59049e-06
-6.24137e-06
-6.51111e-06
1.19966e-06
-1.30054e-05
-2.98067e-07
-1.51145e-05
-2.35799e-06
-1.27454e-06
1.09597e-05
-4.33994e-06
-1.40805e-06
1.58741e-05
-5.84081e-06
-4.86046e-07
1.54184e-05
-7.3138e-06
9.98631e-07
1.31013e-05
-9.15727e-06
2.64633e-06
9.71296e-06
-1.14137e-05
4.0428e-06
4.80605e-06
-1.34879e-05
4.62634e-06
-2.56117e-06
-1.36432e-05
3.75881e-06
-1.32184e-05
-9.28557e-06
1.56678e-06
-2.49217e-05
-4.25822e-07
-2.65191e-05
-2.99912e-06
-1.15859e-06
1.19986e-05
-5.97593e-06
-1.32489e-06
1.82652e-05
-8.22137e-06
-4.17315e-07
1.80357e-05
-9.93648e-06
1.02886e-06
1.52916e-05
-1.14591e-05
2.5649e-06
1.10723e-05
-1.29581e-05
3.7438e-06
5.02994e-06
-1.41797e-05
4.05867e-06
-3.67421e-06
-1.38418e-05
3.08372e-06
-1.60026e-05
-9.45825e-06
1.14898e-06
-2.93883e-05
-3.47892e-07
-3.05836e-05
-3.36634e-06
-6.64179e-07
1.22577e-05
-6.90477e-06
-7.69984e-07
1.8926e-05
-9.47753e-06
-2.23317e-07
1.87047e-05
-1.11232e-05
6.38474e-07
1.57503e-05
-1.22083e-05
1.52273e-06
1.12472e-05
-1.30995e-05
2.15223e-06
4.89682e-06
-1.38592e-05
2.24728e-06
-4.13083e-06
-1.34892e-05
1.62703e-06
-1.69976e-05
-9.41081e-06
5.60043e-07
-3.1047e-05
-1.7845e-07
-3.21631e-05
-3.52671e-06
1.78883e-13
1.23133e-05
-7.3015e-06
2.51638e-13
1.90625e-05
-9.97412e-06
2.57935e-13
1.87976e-05
-1.15154e-05
2.15567e-13
1.57507e-05
-1.2342e-05
1.55255e-13
1.11775e-05
-1.29562e-05
1.31958e-13
4.79098e-06
-1.35841e-05
1.61253e-13
-4.27851e-06
-1.33113e-05
2.07277e-13
-1.73292e-05
-9.42081e-06
2.27801e-13
-3.16452e-05
1.62166e-13
-3.27493e-05
-3.52671e-06
6.64179e-07
1.23133e-05
-7.3015e-06
7.69984e-07
1.90625e-05
-9.97412e-06
2.23318e-07
1.87976e-05
-1.15154e-05
-6.38473e-07
1.57507e-05
-1.2342e-05
-1.52273e-06
1.11775e-05
-1.29562e-05
-2.15223e-06
4.79098e-06
-1.35841e-05
-2.24728e-06
-4.27851e-06
-1.33113e-05
-1.62703e-06
-1.73292e-05
-9.42081e-06
-5.60043e-07
-3.16452e-05
1.78451e-07
-3.27493e-05
-3.36634e-06
1.15859e-06
1.22577e-05
-6.90477e-06
1.32489e-06
1.8926e-05
-9.47753e-06
4.17315e-07
1.87047e-05
-1.11232e-05
-1.02886e-06
1.57503e-05
-1.22083e-05
-2.5649e-06
1.12472e-05
-1.30995e-05
-3.7438e-06
4.89682e-06
-1.38592e-05
-4.05867e-06
-4.13083e-06
-1.34892e-05
-3.08372e-06
-1.69976e-05
-9.41081e-06
-1.14898e-06
-3.1047e-05
3.47892e-07
-3.21631e-05
-2.99912e-06
1.27454e-06
1.19986e-05
-5.97593e-06
1.40805e-06
1.82652e-05
-8.22137e-06
4.86046e-07
1.80357e-05
-9.93648e-06
-9.98631e-07
1.52916e-05
-1.14591e-05
-2.64633e-06
1.10723e-05
-1.29581e-05
-4.0428e-06
5.02994e-06
-1.41797e-05
-4.62634e-06
-3.67421e-06
-1.38418e-05
-3.75881e-06
-1.60026e-05
-9.45825e-06
-1.56678e-06
-2.93883e-05
4.25822e-07
-3.05836e-05
-2.35799e-06
8.28956e-07
1.09597e-05
-4.33994e-06
8.38406e-07
1.58741e-05
-5.84081e-06
3.0689e-07
1.54184e-05
-7.3138e-06
-5.44338e-07
1.31013e-05
-9.15727e-06
-1.52729e-06
9.71296e-06
-1.14137e-05
-2.45672e-06
4.80605e-06
-1.34879e-05
-2.985e-06
-2.56117e-06
-1.36432e-05
-2.59049e-06
-1.32184e-05
-9.28557e-06
-1.19966e-06
-2.49217e-05
2.98067e-07
-2.65191e-05
-1.21879e-06
7.05688e-06
-1.81269e-06
8.77177e-06
-2.16224e-06
8.03167e-06
-2.80465e-06
6.74844e-06
-4.12006e-06
5.22414e-06
-6.17543e-06
3.05042e-06
-8.42845e-06
-5.531e-07
-9.23673e-06
-6.24137e-06
-6.51111e-06
-1.30054e-05
-1.51145e-05
-2.46549e-06
-1.08137e-06
1.06037e-05
-2.21232e-06
-1.07298e-06
9.59158e-06
-1.25891e-06
-3.82544e-07
7.4608e-06
-7.08771e-07
6.8653e-07
5.51178e-06
-1.20322e-06
1.9173e-06
3.80128e-06
-3.069e-06
3.14814e-06
1.76806e-06
-6.14363e-06
4.02885e-06
-1.50732e-06
-8.68198e-06
3.68101e-06
-7.38404e-06
-7.67119e-06
1.6165e-06
-1.56327e-05
-1.01793e-06
-2.17678e-05
-3.99934e-06
-1.5283e-06
1.54059e-05
-4.62482e-06
-1.65402e-06
1.70807e-05
-3.81545e-06
-5.76402e-07
1.48029e-05
-2.85594e-06
1.08817e-06
1.17401e-05
-2.59941e-06
2.94291e-06
8.43082e-06
-3.5278e-06
4.59728e-06
4.2853e-06
-5.69999e-06
5.49667e-06
-1.8568e-06
-8.02517e-06
4.59376e-06
-1.1806e-05
-7.43285e-06
1.61404e-06
-2.55116e-05
-1.38828e-06
-3.35816e-05
-4.60446e-06
-1.30612e-06
1.63808e-05
-5.92859e-06
-1.46731e-06
1.94026e-05
-5.44914e-06
-4.70347e-07
1.74502e-05
-4.27055e-06
1.04569e-06
1.41555e-05
-3.21152e-06
2.65048e-06
1.03057e-05
-2.90892e-06
3.94964e-06
5.37498e-06
-3.81214e-06
4.46065e-06
-1.73497e-06
-5.7286e-06
3.45023e-06
-1.29426e-05
-5.98514e-06
1.01273e-06
-2.85305e-05
-1.02583e-06
-3.69312e-05
-4.86633e-06
-7.21526e-07
1.65395e-05
-6.5486e-06
-8.23224e-07
1.99642e-05
-6.20414e-06
-2.43005e-07
1.81329e-05
-4.82623e-06
6.26255e-07
1.47918e-05
-3.25494e-06
1.51285e-06
1.08135e-05
-2.28299e-06
2.1805e-06
5.69401e-06
-2.64233e-06
2.37128e-06
-1.68211e-06
-4.60434e-06
1.74272e-06
-1.33281e-05
-5.47449e-06
4.58648e-07
-2.96228e-05
-4.91806e-07
-3.81717e-05
-4.95988e-06
1.41384e-13
1.65517e-05
-6.77328e-06
2.03286e-13
2.00527e-05
-6.45078e-06
2.18521e-13
1.82321e-05
-4.94827e-06
1.97498e-13
1.48745e-05
-3.14156e-06
1.76447e-13
1.08836e-05
-1.92295e-06
1.95968e-13
5.75287e-06
-2.15273e-06
2.31983e-13
-1.67746e-06
-4.25439e-06
2.60155e-13
-1.34848e-05
-5.39692e-06
2.35846e-13
-3.00441e-05
1.51883e-13
-3.8638e-05
-4.95988e-06
7.21527e-07
1.65517e-05
-6.77328e-06
8.23224e-07
2.00527e-05
-6.45078e-06
2.43005e-07
1.82321e-05
-4.94827e-06
-6.26254e-07
1.48745e-05
-3.14156e-06
-1.51285e-06
1.08836e-05
-1.92295e-06
-2.1805e-06
5.75287e-06
-2.15273e-06
-2.37128e-06
-1.67746e-06
-4.25439e-06
-1.74272e-06
-1.34848e-05
-5.39692e-06
-4.58648e-07
-3.00441e-05
4.91806e-07
-3.8638e-05
-4.86633e-06
1.30612e-06
1.65395e-05
-6.5486e-06
1.46731e-06
1.99642e-05
-6.20414e-06
4.70348e-07
1.81329e-05
-4.82623e-06
-1.04569e-06
1.47918e-05
-3.25494e-06
-2.65048e-06
1.08135e-05
-2.28299e-06
-3.94964e-06
5.69401e-06
-2.64233e-06
-4.46065e-06
-1.68211e-06
-4.60435e-06
-3.45023e-06
-1.33281e-05
-5.47449e-06
-1.01273e-06
-2.96228e-05
1.02583e-06
-3.81717e-05
-4.60446e-06
1.5283e-06
1.63808e-05
-5.92859e-06
1.65402e-06
1.94026e-05
-5.44914e-06
5.76402e-07
1.74502e-05
-4.27055e-06
-1.08817e-06
1.41555e-05
-3.21152e-06
-2.94291e-06
1.03057e-05
-2.90892e-06
-4.59728e-06
5.37498e-06
-3.81214e-06
-5.49667e-06
-1.73497e-06
-5.7286e-06
-4.59376e-06
-1.29426e-05
-5.98514e-06
-1.61404e-06
-2.85305e-05
1.38828e-06
-3.69312e-05
-3.99934e-06
1.08137e-06
1.54059e-05
-4.62482e-06
1.07298e-06
1.70807e-05
-3.81545e-06
3.82544e-07
1.48029e-05
-2.85594e-06
-6.86529e-07
1.17401e-05
-2.59941e-06
-1.9173e-06
8.43082e-06
-3.5278e-06
-3.14814e-06
4.2853e-06
-5.69999e-06
-4.02885e-06
-1.8568e-06
-8.02517e-06
-3.68101e-06
-1.1806e-05
-7.43285e-06
-1.6165e-06
-2.55116e-05
1.01793e-06
-3.35816e-05
-2.46549e-06
1.06037e-05
-2.21232e-06
9.59158e-06
-1.25891e-06
7.4608e-06
-7.08771e-07
5.51178e-06
-1.20322e-06
3.80128e-06
-3.069e-06
1.76806e-06
-6.14363e-06
-1.50732e-06
-8.68198e-06
-7.38404e-06
-7.67119e-06
-1.56327e-05
-2.17678e-05
-2.66592e-06
-1.85774e-06
1.51274e-05
5.3059e-07
-1.9912e-06
8.38628e-06
4.57467e-06
-1.1984e-06
4.61512e-06
7.43674e-06
-1.41148e-07
2.79085e-06
8.61824e-06
1.10039e-06
1.51939e-06
7.68181e-06
2.38306e-06
3.21436e-07
4.36547e-06
3.54697e-06
-1.73796e-06
-6.12425e-07
3.44368e-06
-5.84983e-06
-3.46881e-06
8.93748e-07
-1.367e-05
-2.72785e-06
-2.25087e-05
-4.75717e-06
-2.23288e-06
2.05382e-05
-7.42044e-07
-2.67819e-06
1.37525e-05
5.19686e-06
-1.76379e-06
9.42935e-06
1.03485e-05
-2.87184e-07
6.73451e-06
1.40206e-05
1.37934e-06
4.47981e-06
1.55324e-05
3.0084e-06
2.14818e-06
1.40801e-05
4.26334e-06
-1.12087e-06
9.34464e-06
3.82504e-06
-7.45192e-06
3.10447e-06
6.79437e-07
-1.90571e-05
-2.77258e-06
-3.04324e-05
-5.51631e-06
-1.71033e-06
2.13746e-05
-1.6906e-06
-2.16912e-06
1.50678e-05
4.40853e-06
-1.43377e-06
1.10211e-05
1.02429e-05
-2.25949e-07
8.25989e-06
1.50535e-05
1.1155e-06
5.75895e-06
1.80468e-05
2.35193e-06
3.03814e-06
1.79783e-05
3.18744e-06
-5.90567e-07
1.37502e-05
2.73422e-06
-7.62373e-06
5.73245e-06
4.19135e-07
-2.02524e-05
-1.73909e-06
-3.22323e-05
-5.70996e-06
-8.88654e-07
2.14278e-05
-2.02154e-06
-1.15281e-06
1.52595e-05
4.08147e-06
-7.493e-07
1.13454e-05
1.0129e-05
-1.00441e-07
8.61874e-06
1.53555e-05
6.08481e-07
6.09402e-06
1.88777e-05
1.2362e-06
3.28762e-06
1.92085e-05
1.62085e-06
-4.46329e-07