/*--------------------------------*- C++ -*----------------------------------*\
  =========                 |
  \\      /  F ield         | OpenFOAM: The Open Source CFD Toolbox
   \\    /   O peration     | Website:  https://openfoam.org
    \\  /    A nd           | Version:  9
     \\/     M anipulation  |
\*---------------------------------------------------------------------------*/
FoamFile
{
    format      ascii;
    class       volScalarField;
    location    "0.86";
    object      p;
}
// * * * * * * * * * * * * * * * * * * * * * * * * * * * * * * * * * * * * * //

dimensions      [0 2 -2 0 0 0 0];

internalField   nonuniform List<scalar> 
1000
(
1.31388e-06
-0.000491433
-0.000185559
0.00087088
0.00275475
0.00533968
0.00816379
0.0104622
0.0115306
0.0106723
0.000172594
-0.000736665
-0.000539325
0.00056352
0.00263114
0.00551741
0.00868512
0.0112024
0.0122126
0.0108025
0.000960959
-0.000226702
-6.8465e-05
0.00113605
0.00345425
0.00671198
0.0102625
0.0129242
0.0136835
0.0115279
0.001815
0.000441063
0.000585352
0.00189163
0.00443913
0.00803715
0.0118539
0.014569
0.0150644
0.0123127
0.002352
0.000889751
0.00103286
0.00239956
0.00507317
0.00884524
0.0128079
0.0155323
0.0158686
0.0128007
0.00235203
0.00088977
0.00103287
0.00239957
0.00507318
0.00884525
0.0128079
0.0155323
0.0158686
0.0128007
0.00181509
0.000441124
0.0005854
0.00189167
0.00443915
0.00803717
0.0118539
0.014569
0.0150644
0.0123127
0.000961128
-0.00022659
-6.83824e-05
0.00113611
0.00345429
0.00671201
0.0102625
0.0129242
0.0136835
0.0115279
0.000172928
-0.000736482
-0.000539206
0.000563599
0.0026312
0.00551745
0.00868515
0.0112024
0.0122126
0.0108025
2.1439e-06
-0.000491141
-0.000185401
0.000870976
0.00275481
0.00533972
0.00816382
0.0104622
0.0115306
0.0106723
0.000414812
-2.07076e-05
0.000303849
0.00122796
0.00285846
0.00514904
0.00773434
0.00994405
0.0110335
0.00988798
0.000955111
2.71774e-05
0.000269074
0.00118515
0.00285261
0.00523883
0.00796888
0.0103052
0.0113547
0.00955348
0.00218565
0.000843613
0.00101441
0.00192488
0.00366056
0.00619575
0.00916057
0.0115746
0.0124168
0.00986144
0.00335714
0.00169635
0.00180242
0.00270954
0.00451833
0.00722152
0.010358
0.0128012
0.0134336
0.0103256
0.00405576
0.00222445
0.00229377
0.00319885
0.00504915
0.00785359
0.0110767
0.0135214
0.014029
0.0106472
0.00405578
0.00222446
0.00229379
0.00319886
0.00504916
0.0078536
0.0110767
0.0135214
0.014029
0.0106472
0.00335721
0.0016964
0.00180247
0.00270957
0.00451835
0.00722153
0.010358
0.0128012
0.0134336
0.0103256
0.00218577
0.000843703
0.00101448
0.00192493
0.0036606
0.00619577
0.00916059
0.0115746
0.0124168
0.00986145
0.000955303
2.7312e-05
0.000269171
0.00118522
0.00285266
0.00523887
0.0079689
0.0103052
0.0113547
0.0095535
0.000415109
-2.05264e-05
0.000303969
0.00122804
0.00285851
0.00514907
0.00773437
0.00994407
0.0110335
0.009888
-0.000935267
-0.00150501
-0.00130539
-0.000590472
0.000856888
0.00316647
0.00611886
0.00902585
0.0107907
0.0094785
-7.10107e-05
-0.00130177
-0.0011879
-0.000475379
0.00101338
0.00344467
0.00659628
0.00967608
0.0113669
0.00890495
0.0016838
-0.000143579
-0.00016337
0.000450163
0.00191037
0.00444335
0.00781317
0.0110244
0.0125159
0.0090045
0.00328659
0.0010005
0.000849988
0.00136524
0.00280524
0.00544198
0.00894469
0.0122045
0.0134936
0.00928
0.00422057
0.00168928
0.00146163
0.00191894
0.00334823
0.00603251
0.00959836
0.0128626
0.0140323
0.00949276
0.00422059
0.00168929
0.00146164
0.00191895
0.00334824
0.00603252
0.00959836
0.0128626
0.0140323
0.00949276
0.00328664
0.00100055
0.000850022
0.00136527
0.00280526
0.005442
0.00894469
0.0122045
0.0134936
0.00928
0.00168388
-0.00014351
-0.000163314
0.000450205
0.0019104
0.00444337
0.00781319
0.0110244
0.012516
0.00900451
-7.08874e-05
-0.00130168
-0.00118783
-0.000475324
0.00101342
0.0034447
0.00659631
0.0096761
0.0113669
0.00890497
-0.00093511
-0.00150489
-0.0013053
-0.000590407
0.000856935
0.0031665
0.00611888
0.00902587
0.0107908
0.00947852
-0.00444242
-0.00514
-0.00512043
-0.00469019
-0.00344669
-0.000951837
0.00285687
0.00735471
0.0108245
0.00992731
-0.00325618
-0.00476523
-0.00483373
-0.00438769
-0.00306999
-0.000395596
0.00371715
0.00854836
0.0119478
0.00931183
-0.000971553
-0.00325859
-0.00357034
-0.00338169
-0.00226116
0.000424875
0.00469008
0.0097844
0.0131179
0.00930829
0.00107336
-0.00180935
-0.0023598
-0.00242618
-0.00150319
0.00110681
0.00549274
0.0107133
0.0139454
0.00944075
0.00224987
-0.000949739
-0.00164077
-0.00185562
-0.00104127
0.00152852
0.00593045
0.0111822
0.0143508
0.00955449
0.00224988
-0.000949728
-0.00164076
-0.00185562
-0.00104127
0.00152852
0.00593045
0.0111822
0.0143508
0.00955449
0.0010734
-0.00180932
-0.00235977
-0.00242615
-0.00150317
0.00110682
0.00549275
0.0107133
0.0139454
0.00944076
-0.000971493
-0.00325854
-0.0035703
-0.00338166
-0.00226113
0.000424896
0.0046901
0.00978443
0.013118
0.0093083
-0.0032561
-0.00476516
-0.00483367
-0.00438765
-0.00306996
-0.000395571
0.00371717
0.00854837
0.0119478
0.00931183
-0.00444233
-0.00513992
-0.00512037
-0.00469013
-0.00344665
-0.000951809
0.00285689
0.00735471
0.0108245
0.00992732
-0.0107883
-0.0114409
-0.0115218
-0.0113871
-0.0104061
-0.00764618
-0.00248028
0.00478031
0.0116118
0.0128128
-0.00932546
-0.0109128
-0.0111023
-0.0109702
-0.00992335
-0.00704061
-0.00157294
0.00624228
0.0132422
0.0125862
-0.00662901
-0.00915883
-0.00977007
-0.0101682
-0.00966252
-0.00710608
-0.00165088
0.00660558
0.0139292
0.0125896
-0.00425984
-0.00750283
-0.00851172
-0.00940263
-0.00936838
-0.00709631
-0.0017379
0.00673682
0.0142511
0.0126391
-0.00291371
-0.00653254
-0.00776991
-0.0089351
-0.0091558
-0.00707417
-0.00176988
0.00676933
0.0143533
0.0126678
-0.0029137
-0.00653254
-0.00776991
-0.00893509
-0.00915579
-0.00707417
-0.00176988
0.00676933
0.0143533
0.0126678
-0.00425981
-0.00750281
-0.0085117
-0.00940261
-0.00936836
-0.0070963
-0.00173789
0.00673683
0.0142511
0.0126391
-0.00662897
-0.00915879
-0.00977004
-0.0101682
-0.0096625
-0.00710606
-0.00165086
0.0066056
0.0139292
0.0125896
-0.00932541
-0.0109128
-0.0111023
-0.0109702
-0.00992332
-0.00704059
-0.00157292
0.00624228
0.0132422
0.0125862
-0.0107882
-0.0114408
-0.0115218
-0.011387
-0.010406
-0.00764616
-0.00248026
0.00478031
0.0116118
0.0128128
-0.0205898
-0.0206577
-0.0204678
-0.0204703
-0.0197303
-0.0167299
-0.009821
0.00152365
0.0143688
0.0210319
-0.0188843
-0.0200309
-0.0200336
-0.0201674
-0.0196249
-0.0169017
-0.0101739
0.00169426
0.0151921
0.0213853
-0.0159165
-0.0181502
-0.0188281
-0.0199003
-0.0204218
-0.0186551
-0.0124289
-3.82554e-05
0.0145491
0.0213968
-0.0133733
-0.0164027
-0.017672
-0.0195369
-0.0208981
-0.0198579
-0.0139991
-0.00135826
0.0138759
0.0213097
-0.0119519
-0.0153926
-0.0169889
-0.0192699
-0.0210458
-0.0203211
-0.0146972
-0.00199668
0.0135032
0.0212319
-0.0119519
-0.0153926
-0.0169889
-0.0192699
-0.0210458
-0.0203211
-0.0146972
-0.00199668
0.0135032
0.0212319
-0.0133733
-0.0164026
-0.017672
-0.0195369
-0.0208981
-0.0198579
-0.0139991
-0.00135826
0.0138759
0.0213097
-0.0159164
-0.0181502
-0.018828
-0.0199003
-0.0204217
-0.018655
-0.0124289
-3.82446e-05
0.0145491
0.0213968
-0.0188842
-0.0200309
-0.0200336
-0.0201673
-0.0196249
-0.0169017
-0.0101739
0.00169427
0.0151921
0.0213853
-0.0205897
-0.0206577
-0.0204678
-0.0204703
-0.0197302
-0.0167299
-0.00982098
0.00152366
0.0143688
0.0210319
-0.0349167
-0.0326612
-0.0312037
-0.030796
-0.0301484
-0.0270008
-0.0184417
-0.00181947
0.0201317
0.0388657
-0.0327699
-0.0318863
-0.0308577
-0.0309527
-0.031066
-0.0290696
-0.0217709
-0.00533557
0.0177852
0.0389744
-0.0295121
-0.0298129
-0.0297597
-0.0312871
-0.0331367
-0.0329567
-0.0269882
-0.0102458
0.0147074
0.0388146
-0.0268521
-0.027964
-0.0286758
-0.0312806
-0.0343373
-0.035314
-0.0301293
-0.0132085
0.0127879
0.038675
-0.0254059
-0.0269252
-0.0280409
-0.0311735
-0.034781
-0.0362592
-0.0314219
-0.0144593
0.0119555
0.0385929
-0.0254059
-0.0269252
-0.0280409
-0.0311735
-0.034781
-0.0362592
-0.0314219
-0.0144593
0.0119555
0.0385929
-0.0268521
-0.027964
-0.0286758
-0.0312805
-0.0343373
-0.035314
-0.0301293
-0.0132085
0.012788
0.038675
-0.0295121
-0.0298128
-0.0297597
-0.0312871
-0.0331367
-0.0329567
-0.0269882
-0.0102458
0.0147074
0.0388146
-0.0327698
-0.0318863
-0.0308577
-0.0309527
-0.031066
-0.0290696
-0.0217709
-0.00533557
0.0177852
0.0389745
-0.0349167
-0.0326612
-0.0312036
-0.030796
-0.0301484
-0.0270008
-0.0184417
-0.00181948
0.0201317
0.0388657
-0.0575711
-0.0470143
-0.0422315
-0.0401549
-0.0390434
-0.035536
-0.025671
-0.00313255
0.0302806
0.0731924
-0.0543024
-0.0455443
-0.0416278
-0.0408352
-0.0413115
-0.0400504
-0.0331297
-0.0121348
0.0225112
0.0736556
-0.0501384
-0.0426168
-0.0398857
-0.0410874
-0.0439519
-0.0451323
-0.0402983
-0.019209
0.0177943
0.075102
-0.0470449
-0.0402819
-0.0383778
-0.0408694
-0.0452235
-0.0477775
-0.0440082
-0.0226091
0.0158137
0.0764635
-0.0454584
-0.0390597
-0.0375749
-0.0406567
-0.045637
-0.0487305
-0.0454018
-0.0238509
0.0151825
0.0771229
-0.0454584
-0.0390597
-0.0375749
-0.0406567
-0.045637
-0.0487305
-0.0454018
-0.0238509
0.0151825
0.0771229
-0.0470449
-0.0402819
-0.0383778
-0.0408693
-0.0452235
-0.0477775
-0.0440082
-0.0226091
0.0158138
0.0764635
-0.0501384
-0.0426168
-0.0398857
-0.0410874
-0.0439519
-0.0451323
-0.0402983
-0.019209
0.0177943
0.075102
-0.0543023
-0.0455443
-0.0416278
-0.0408352
-0.0413115
-0.0400503
-0.0331297
-0.0121348
0.0225112
0.0736556
-0.0575711
-0.0470143
-0.0422315
-0.0401549
-0.0390434
-0.035536
-0.025671
-0.00313255
0.0302806
0.0731924
-0.0890774
-0.0612416
-0.0519785
-0.0463583
-0.0436274
-0.0390538
-0.0263717
0.00466101
0.051644
0.150873
-0.0814054
-0.0572685
-0.0505533
-0.0473583
-0.0470042
-0.0451704
-0.0362109
-0.00612361
0.0452777
0.162522
-0.0749921
-0.0524368
-0.0472835
-0.0466214
-0.0492028
-0.0500244
-0.0431326
-0.0114133
0.0463373
0.171593
-0.0709925
-0.0491348
-0.0448748
-0.0457378
-0.0500193
-0.0523063
-0.046235
-0.0132216
0.0476495
0.177307
-0.0691448
-0.0475544
-0.043715
-0.0452518
-0.0502368
-0.0531055
-0.0473217
-0.013788
0.0483718
0.179791
-0.0691448
-0.0475544
-0.043715
-0.0452518
-0.0502367
-0.0531055
-0.0473217
-0.013788
0.0483718
0.179791
-0.0709925
-0.0491348
-0.0448748
-0.0457378
-0.0500193
-0.0523063
-0.046235
-0.0132216
0.0476496
0.177307
-0.0749921
-0.0524368
-0.0472835
-0.0466213
-0.0492028
-0.0500244
-0.0431326
-0.0114133
0.0463373
0.171593
-0.0814054
-0.0572684
-0.0505533
-0.0473582
-0.0470041
-0.0451704
-0.0362108
-0.00612361
0.0452777
0.162522
-0.0890774
-0.0612415
-0.0519785
-0.0463583
-0.0436274
-0.0390538
-0.0263717
0.00466101
0.051644
0.150873
-0.199315
-0.0738994
-0.0488889
-0.0404299
-0.036143
-0.0293852
-0.0124701
0.0327717
0.11902
0.324657
-0.187005
-0.0611498
-0.0410618
-0.037033
-0.036418
-0.032995
-0.0184759
0.0296022
0.129532
0.359301
-0.17809
-0.0521994
-0.0343828
-0.0334466
-0.036031
-0.0349905
-0.021454
0.0297217
0.138862
0.380176
-0.172938
-0.0471298
-0.0303371
-0.0311257
-0.0355434
-0.0358161
-0.0226028
0.030212
0.143491
0.390213
-0.170674
-0.0449487
-0.0285832
-0.0300986
-0.0352881
-0.0361193
-0.0230383
0.0304273
0.145257
0.394038
-0.170674
-0.0449487
-0.0285832
-0.0300986
-0.0352881
-0.0361193
-0.0230383
0.0304273
0.145257
0.394038
-0.172938
-0.0471298
-0.0303371
-0.0311257
-0.0355434
-0.0358161
-0.0226028
0.030212
0.143491
0.390213
-0.17809
-0.0521994
-0.0343828
-0.0334466
-0.036031
-0.0349905
-0.021454
0.0297217
0.138862
0.380176
-0.187005
-0.0611498
-0.0410618
-0.037033
-0.036418
-0.032995
-0.0184759
0.0296022
0.129532
0.359301
-0.199315
-0.0738994
-0.0488889
-0.0404299
-0.036143
-0.0293852
-0.0124701
0.0327717
0.11902
0.324657
)
;

boundaryField
{
    top
    {
        type            zeroGradient;
    }
    others
    {
        type            zeroGradient;
    }
}


// ************************************************************************* //
