/*--------------------------------*- C++ -*----------------------------------*\
  =========                 |
  \\      /  F ield         | OpenFOAM: The Open Source CFD Toolbox
   \\    /   O peration     | Website:  https://openfoam.org
    \\  /    A nd           | Version:  9
     \\/     M anipulation  |
\*---------------------------------------------------------------------------*/
FoamFile
{
    format      ascii;
    class       volVectorField;
    location    "0.36";
    object      U;
}
// * * * * * * * * * * * * * * * * * * * * * * * * * * * * * * * * * * * * * //

dimensions      [0 1 -1 0 0 0 0];

internalField   nonuniform List<vector> 
1000
(
(-9.01804e-05 -0.000383138 0.000366732)
(-0.00169476 -0.000291736 0.00104009)
(-0.00487083 -0.000236661 0.00129482)
(-0.00806137 -0.000322692 0.00133023)
(-0.0106518 -0.000566402 0.00119867)
(-0.0118795 -0.000935869 0.000848094)
(-0.0109838 -0.0013164 0.000272256)
(-0.00769827 -0.00148276 -0.000345669)
(-0.00276516 -0.00120751 -0.000514824)
(-2.57932e-05 -0.000347974 0.000132086)
(-0.000329538 -0.00125297 0.000606123)
(-0.00369036 -0.00137626 0.0020976)
(-0.0100113 -0.0013641 0.00263917)
(-0.0162238 -0.00159892 0.00256524)
(-0.0210816 -0.00217023 0.00201134)
(-0.0231985 -0.00300731 0.000926157)
(-0.0212404 -0.00383221 -0.000603945)
(-0.0148156 -0.00410873 -0.00198436)
(-0.0054916 -0.00333566 -0.00203825)
(-0.000218324 -0.00120442 -9.33227e-05)
(-0.000473481 -0.00175954 0.00039402)
(-0.00485388 -0.00230682 0.00219162)
(-0.0129612 -0.00243368 0.00284547)
(-0.02084 -0.00271555 0.00266515)
(-0.0268938 -0.00331325 0.00180577)
(-0.0293863 -0.00416101 0.000226674)
(-0.0266435 -0.00492203 -0.00191396)
(-0.0182398 -0.00506747 -0.00365843)
(-0.00635424 -0.00411348 -0.00337677)
(7.02136e-06 -0.00174294 -0.000335471)
(-0.000532072 -0.00142801 0.000122827)
(-0.00545783 -0.00198829 0.00198026)
(-0.0145577 -0.00213277 0.00266739)
(-0.0233627 -0.00234184 0.00242886)
(-0.0300736 -0.00275739 0.0014056)
(-0.0327059 -0.0033354 -0.000447655)
(-0.0294 -0.00381155 -0.00291296)
(-0.0197866 -0.00384683 -0.00480641)
(-0.00644195 -0.0031301 -0.0042264)
(0.000321229 -0.00142351 -0.000471413)
(-0.000550366 -0.00053928 -3.67116e-05)
(-0.00570725 -0.000768539 0.001817)
(-0.015243 -0.000829123 0.00251329)
(-0.0244573 -0.000903542 0.0022542)
(-0.0314551 -0.00104657 0.0011659)
(-0.0341361 -0.00124262 -0.000804195)
(-0.03055 -0.00140256 -0.00339848)
(-0.0203636 -0.00140468 -0.00533929)
(-0.00636565 -0.00114599 -0.00460366)
(0.000514336 -0.000537993 -0.000524419)
(-0.000550365 0.000539312 -3.67106e-05)
(-0.00570725 0.000768559 0.00181701)
(-0.015243 0.000829137 0.00251329)
(-0.0244573 0.000903552 0.0022542)
(-0.0314551 0.00104658 0.0011659)
(-0.0341361 0.00124263 -0.000804196)
(-0.03055 0.00140256 -0.00339848)
(-0.0203636 0.00140468 -0.00533929)
(-0.00636565 0.00114599 -0.00460366)
(0.000514336 0.000537991 -0.000524419)
(-0.000532068 0.00142804 0.000122831)
(-0.00545783 0.00198831 0.00198026)
(-0.0145577 0.00213279 0.00266739)
(-0.0233627 0.00234185 0.00242886)
(-0.0300736 0.0027574 0.0014056)
(-0.0327059 0.0033354 -0.000447657)
(-0.0294 0.00381155 -0.00291296)
(-0.0197866 0.00384683 -0.00480641)
(-0.00644195 0.00313009 -0.00422641)
(0.00032123 0.0014235 -0.000471413)
(-0.00047347 0.00175956 0.000394033)
(-0.00485387 0.00230684 0.00219163)
(-0.0129612 0.0024337 0.00284548)
(-0.02084 0.00271556 0.00266515)
(-0.0268938 0.00331326 0.00180577)
(-0.0293863 0.00416102 0.000226672)
(-0.0266435 0.00492204 -0.00191396)
(-0.0182398 0.00506747 -0.00365844)
(-0.00635424 0.00411348 -0.00337677)
(7.02193e-06 0.00174294 -0.000335472)
(-0.000329502 0.00125294 0.000606159)
(-0.00369033 0.00137625 0.00209763)
(-0.0100113 0.0013641 0.00263918)
(-0.0162239 0.00159893 0.00256524)
(-0.0210816 0.00217024 0.00201134)
(-0.0231985 0.00300732 0.000926154)
(-0.0212404 0.00383222 -0.000603947)
(-0.0148156 0.00410873 -0.00198436)
(-0.0054916 0.00333566 -0.00203826)
(-0.000218324 0.00120442 -9.33258e-05)
(-9.01186e-05 0.000383079 0.000366795)
(-0.00169473 0.000291706 0.00104012)
(-0.00487085 0.000236656 0.00129483)
(-0.0080614 0.000322693 0.00133023)
(-0.0106518 0.000566405 0.00119867)
(-0.0118795 0.000935871 0.000848091)
(-0.0109838 0.00131641 0.000272255)
(-0.00769827 0.00148276 -0.00034567)
(-0.00276516 0.00120751 -0.000514827)
(-2.5794e-05 0.000347974 0.000132083)
(-0.000703028 -0.0011001 0.00313544)
(-0.00428286 -0.0012914 0.00614209)
(-0.0102173 -0.00127877 0.00706958)
(-0.0160235 -0.00131871 0.0068839)
(-0.0206734 -0.00149006 0.00580627)
(-0.0229244 -0.00179587 0.00370387)
(-0.0215128 -0.0021267 0.000661221)
(-0.0157941 -0.00217806 -0.0024421)
(-0.00673893 -0.0016054 -0.00365135)
(-0.000805057 -0.000168422 -0.0012014)
(-0.00197321 -0.00302703 0.00515237)
(-0.0104002 -0.00394811 0.0114596)
(-0.0235994 -0.00405856 0.0133146)
(-0.0361389 -0.00420265 0.0123188)
(-0.0456747 -0.0046462 0.0090258)
(-0.0497683 -0.00537435 0.00341031)
(-0.0461083 -0.00610503 -0.00388895)
(-0.0337354 -0.00608579 -0.010375)
(-0.0149922 -0.00458687 -0.0113857)
(-0.00224796 -0.00111334 -0.00363559)
(-0.00275918 -0.00373873 0.00509884)
(-0.0142108 -0.00532989 0.0126005)
(-0.0318433 -0.00562559 0.0147172)
(-0.0482768 -0.00582192 0.013005)
(-0.0604093 -0.00631307 0.00809615)
(-0.0651991 -0.00707397 7.802e-05)
(-0.0597998 -0.00772619 -0.00986557)
(-0.0432011 -0.00753085 -0.0179753)
(-0.0188117 -0.00580266 -0.0177816)
(-0.00263973 -0.00203297 -0.00551762)
(-0.00314504 -0.00286305 0.0045484)
(-0.0162479 -0.00426523 0.0123029)
(-0.0363598 -0.00455247 0.0144302)
(-0.05492 -0.00470021 0.0122735)
(-0.0684076 -0.00504077 0.00643399)
(-0.0734043 -0.00555837 -0.00292995)
(-0.066804 -0.00592351 -0.0143155)
(-0.0477197 -0.00570112 -0.02311)
(-0.0202363 -0.00444909 -0.0218165)
(-0.0025494 -0.0017682 -0.00662388)
(-0.00328862 -0.00105443 0.00416804)
(-0.0170905 -0.00160029 0.0119212)
(-0.0382874 -0.00171558 0.014025)
(-0.0577711 -0.00176734 0.0116772)
(-0.0718317 -0.0018824 0.00544048)
(-0.0768721 -0.00205587 -0.00449869)
(-0.0696827 -0.00216845 -0.0164705)
(-0.0494669 -0.0020761 -0.0254929)
(-0.0206495 -0.00163192 -0.0236252)
(-0.00242006 -0.000683961 -0.00709732)
(-0.00328862 0.00105445 0.00416804)
(-0.0170905 0.00160029 0.0119212)
(-0.0382874 0.00171558 0.014025)
(-0.0577711 0.00176734 0.0116772)
(-0.0718317 0.0018824 0.00544048)
(-0.0768721 0.00205587 -0.00449869)
(-0.0696827 0.00216845 -0.0164705)
(-0.0494669 0.0020761 -0.0254929)
(-0.0206495 0.00163192 -0.0236252)
(-0.00242006 0.000683961 -0.00709732)
(-0.00314503 0.00286307 0.0045484)
(-0.0162479 0.00426523 0.0123029)
(-0.0363598 0.00455246 0.0144302)
(-0.05492 0.00470021 0.0122735)
(-0.0684076 0.00504077 0.00643399)
(-0.0734043 0.00555837 -0.00292995)
(-0.066804 0.00592352 -0.0143155)
(-0.0477197 0.00570112 -0.02311)
(-0.0202363 0.00444909 -0.0218165)
(-0.0025494 0.0017682 -0.00662388)
(-0.00275917 0.00373875 0.00509885)
(-0.0142107 0.00532988 0.0126006)
(-0.0318433 0.00562559 0.0147172)
(-0.0482768 0.00582192 0.013005)
(-0.0604093 0.00631307 0.00809614)
(-0.0651991 0.00707397 7.80175e-05)
(-0.0597998 0.0077262 -0.00986557)
(-0.0432011 0.00753086 -0.0179753)
(-0.0188117 0.00580266 -0.0177816)
(-0.00263973 0.00203297 -0.00551762)
(-0.00197318 0.00302702 0.0051524)
(-0.0104002 0.00394809 0.0114596)
(-0.0235994 0.00405855 0.0133146)
(-0.0361389 0.00420265 0.0123188)
(-0.0456747 0.0046462 0.0090258)
(-0.0497683 0.00537436 0.00341031)
(-0.0461083 0.00610504 -0.00388895)
(-0.0337354 0.0060858 -0.010375)
(-0.0149922 0.00458687 -0.0113857)
(-0.00224796 0.00111334 -0.00363559)
(-0.000702997 0.00110007 0.00313548)
(-0.00428284 0.00129137 0.00614212)
(-0.0102173 0.00127876 0.00706958)
(-0.0160235 0.00131871 0.00688389)
(-0.0206734 0.00149006 0.00580627)
(-0.0229244 0.00179588 0.00370387)
(-0.0215128 0.0021267 0.000661222)
(-0.0157941 0.00217807 -0.0024421)
(-0.00673893 0.0016054 -0.00365135)
(-0.00080506 0.000168421 -0.0012014)
(-0.00115843 -0.00175252 0.00888391)
(-0.00614195 -0.00216772 0.0156657)
(-0.0139416 -0.00215122 0.0174483)
(-0.0215577 -0.00208649 0.016667)
(-0.0279835 -0.00211925 0.013839)
(-0.0317967 -0.00231224 0.00868725)
(-0.0311561 -0.002578 0.00130815)
(-0.0244697 -0.00262169 -0.00650677)
(-0.0119579 -0.00191917 -0.0104312)
(-0.00216255 1.4765e-05 -0.00549002)
(-0.00332486 -0.00462984 0.0146408)
(-0.0157319 -0.0061692 0.0284923)
(-0.0340796 -0.0062359 0.0318801)
(-0.0513593 -0.00605026 0.0288865)
(-0.0649827 -0.00606357 0.0207588)
(-0.0720017 -0.00639798 0.00748121)
(-0.0690585 -0.00680836 -0.00970358)
(-0.0535717 -0.00667799 -0.025737)
(-0.0267076 -0.00500071 -0.0302062)
(-0.00523706 -0.000756965 -0.013482)
(-0.00473191 -0.00549249 0.0156208)
(-0.0219915 -0.00786084 0.0319983)
(-0.0470598 -0.0080652 0.0356611)
(-0.0701082 -0.00778888 0.0307852)
(-0.0875909 -0.0076497 0.0188322)
(-0.0957391 -0.00775834 9.11918e-05)
(-0.0905627 -0.00787073 -0.0230244)
(-0.0692608 -0.00747597 -0.0430131)
(-0.0339744 -0.00576997 -0.0455209)
(-0.0064045 -0.00170261 -0.0189849)
(-0.00545931 -0.00409819 0.0152147)
(-0.0254187 -0.00609784 0.0321826)
(-0.0542748 -0.00629847 0.0357014)
(-0.0804481 -0.00605046 0.0296422)
(-0.0998513 -0.00585108 0.015473)
(-0.108305 -0.00577255 -0.00628791)
(-0.101517 -0.00566829 -0.0325363)
(-0.0767775 -0.00528324 -0.0541905)
(-0.03699 -0.00416173 -0.0547874)
(-0.00663457 -0.00150769 -0.0221153)
(-0.00574133 -0.00148922 0.0147887)
(-0.026848 -0.00225368 0.0317999)
(-0.0573547 -0.00233384 0.0351945)
(-0.0848657 -0.0022341 0.0286163)
(-0.10505 -0.00214209 0.0135018)
(-0.113539 -0.00208463 -0.00952066)
(-0.105947 -0.0020103 -0.0370141)
(-0.0796741 -0.00185738 -0.0592273)
(-0.0380074 -0.00148101 -0.0588317)
(-0.00662139 -0.000584826 -0.0234364)
(-0.00574133 0.00148923 0.0147887)
(-0.026848 0.00225368 0.0317999)
(-0.0573547 0.00233384 0.0351945)
(-0.0848657 0.0022341 0.0286163)
(-0.10505 0.00214209 0.0135018)
(-0.113539 0.00208464 -0.00952066)
(-0.105947 0.0020103 -0.0370141)
(-0.0796741 0.00185738 -0.0592273)
(-0.0380074 0.00148101 -0.0588317)
(-0.00662139 0.000584826 -0.0234364)
(-0.0054593 0.00409821 0.0152147)
(-0.0254187 0.00609783 0.0321826)
(-0.0542748 0.00629846 0.0357014)
(-0.0804481 0.00605045 0.0296422)
(-0.0998513 0.00585108 0.015473)
(-0.108305 0.00577255 -0.0062879)
(-0.101517 0.00566829 -0.0325363)
(-0.0767775 0.00528324 -0.0541905)
(-0.03699 0.00416173 -0.0547874)
(-0.00663457 0.00150769 -0.0221153)
(-0.0047319 0.0054925 0.0156208)
(-0.0219914 0.00786083 0.0319984)
(-0.0470598 0.00806519 0.0356611)
(-0.0701082 0.00778888 0.0307852)
(-0.0875909 0.0076497 0.0188322)
(-0.0957391 0.00775834 9.1193e-05)
(-0.0905627 0.00787073 -0.0230244)
(-0.0692608 0.00747597 -0.0430131)
(-0.0339744 0.00576997 -0.0455209)
(-0.0064045 0.00170261 -0.0189849)
(-0.00332485 0.00462984 0.0146408)
(-0.0157319 0.00616919 0.0284923)
(-0.0340796 0.00623589 0.0318801)
(-0.0513593 0.00605026 0.0288865)
(-0.0649827 0.00606357 0.0207588)
(-0.0720017 0.00639798 0.00748121)
(-0.0690585 0.00680836 -0.00970358)
(-0.0535717 0.00667799 -0.025737)
(-0.0267076 0.00500072 -0.0302062)
(-0.00523706 0.000756964 -0.013482)
(-0.00115842 0.00175251 0.00888389)
(-0.00614195 0.00216771 0.0156657)
(-0.0139417 0.00215121 0.0174483)
(-0.0215577 0.00208649 0.016667)
(-0.0279835 0.00211925 0.013839)
(-0.0317968 0.00231224 0.00868725)
(-0.0311561 0.00257801 0.00130816)
(-0.0244697 0.00262169 -0.00650677)
(-0.0119579 0.00191917 -0.0104312)
(-0.00216255 -1.4766e-05 -0.00549002)
(-0.0016005 -0.00241091 0.0166338)
(-0.00779097 -0.00298596 0.028001)
(-0.0170917 -0.00285985 0.0306041)
(-0.0263055 -0.00254517 0.029098)
(-0.0348256 -0.0022594 0.0244027)
(-0.0413132 -0.00215865 0.0158207)
(-0.0432133 -0.00228252 0.00290671)
(-0.037167 -0.00250131 -0.0120286)
(-0.0212711 -0.0020379 -0.0214184)
(-0.00519497 8.27563e-05 -0.01397)
(-0.00459192 -0.00624393 0.0274259)
(-0.0205176 -0.00822396 0.0504699)
(-0.043289 -0.00792667 0.0553407)
(-0.0648893 -0.00693029 0.0499397)
(-0.0831638 -0.00587148 0.0363754)
(-0.0950705 -0.00511241 0.0141067)
(-0.0959556 -0.00479985 -0.0159638)
(-0.080238 -0.00491313 -0.0466313)
(-0.0456685 -0.00419284 -0.0595913)
(-0.0111369 -0.000411356 -0.0320118)
(-0.00656181 -0.00724987 0.0299959)
(-0.0289976 -0.0101614 0.0572386)
(-0.0605534 -0.00983107 0.0623741)
(-0.0896138 -0.00838394 0.0537939)
(-0.112965 -0.00665994 0.0340179)
(-0.1266 -0.00507954 0.00292636)
(-0.125122 -0.00403144 -0.03707)
(-0.10254 -0.00383999 -0.0751932)
(-0.057395 -0.00367123 -0.0866733)
(-0.0135638 -0.00108081 -0.0432149)
(-0.0075924 -0.00532453 0.0300488)
(-0.0336656 -0.00772703 0.0583785)
(-0.0701576 -0.00747931 0.0632123)
(-0.10317 -0.00626176 0.0526925)
(-0.128864 -0.00474088 0.0294333)
(-0.142811 -0.0032445 -0.00633501)
(-0.13936 -0.00219675 -0.0511433)
(-0.112701 -0.00199585 -0.0922763)
(-0.0622667 -0.00218019 -0.101803)
(-0.0143416 -0.000925247 -0.0491349)
(-0.00799338 -0.00191798 0.0297338)
(-0.0356028 -0.00282639 0.0582267)
(-0.0742198 -0.00273487 0.0628461)
(-0.108879 -0.00226713 0.0515013)
(-0.135462 -0.00167455 0.0268174)
(-0.149359 -0.0010829 -0.0107938)
(-0.144891 -0.000654996 -0.0574111)
(-0.116472 -0.00057875 -0.0995326)
(-0.0639672 -0.000699092 -0.108037)
(-0.01455 -0.000351019 -0.0515109)
(-0.00799338 0.001918 0.0297338)
(-0.0356028 0.00282639 0.0582267)
(-0.0742198 0.00273486 0.0628461)
(-0.108879 0.00226712 0.0515013)
(-0.135462 0.00167455 0.0268174)
(-0.149359 0.0010829 -0.0107938)
(-0.144891 0.000654996 -0.0574111)
(-0.116472 0.00057875 -0.0995326)
(-0.0639672 0.000699093 -0.108037)
(-0.01455 0.00035102 -0.0515109)
(-0.0075924 0.00532454 0.0300488)
(-0.0336656 0.00772702 0.0583785)
(-0.0701576 0.00747931 0.0632123)
(-0.10317 0.00626176 0.0526925)
(-0.128864 0.00474088 0.0294333)
(-0.142811 0.0032445 -0.00633501)
(-0.13936 0.00219675 -0.0511433)
(-0.112701 0.00199585 -0.0922763)
(-0.0622667 0.00218019 -0.101803)
(-0.0143416 0.000925248 -0.0491349)
(-0.00656181 0.00724987 0.0299959)
(-0.0289976 0.0101614 0.0572386)
(-0.0605534 0.00983106 0.0623741)
(-0.0896138 0.00838393 0.0537939)
(-0.112965 0.00665994 0.0340179)
(-0.1266 0.00507954 0.00292637)
(-0.125122 0.00403144 -0.03707)
(-0.10254 0.00383999 -0.0751932)
(-0.057395 0.00367123 -0.0866733)
(-0.0135638 0.00108081 -0.0432149)
(-0.00459191 0.00624393 0.0274259)
(-0.0205176 0.00822395 0.05047)
(-0.043289 0.00792667 0.0553408)
(-0.0648893 0.00693029 0.0499397)
(-0.0831638 0.00587149 0.0363754)
(-0.0950705 0.00511242 0.0141067)
(-0.0959556 0.00479985 -0.0159638)
(-0.080238 0.00491313 -0.0466313)
(-0.0456685 0.00419284 -0.0595913)
(-0.0111369 0.000411356 -0.0320118)
(-0.0016005 0.0024109 0.0166338)
(-0.00779097 0.00298596 0.028001)
(-0.0170917 0.00285985 0.0306041)
(-0.0263055 0.00254517 0.029098)
(-0.0348256 0.00225941 0.0244027)
(-0.0413132 0.00215865 0.0158207)
(-0.0432133 0.00228252 0.00290671)
(-0.037167 0.00250131 -0.0120285)
(-0.0212712 0.0020379 -0.0214184)
(-0.00519497 -8.2757e-05 -0.01397)
(-0.00229599 -0.00307065 0.0266268)
(-0.00970408 -0.00369299 0.0429662)
(-0.0199567 -0.00322871 0.0459708)
(-0.0302059 -0.00231241 0.0434527)
(-0.0407992 -0.0012477 0.0368101)
(-0.0510422 -0.00035871 0.0245305)
(-0.0578369 -9.03263e-06 0.00485401)
(-0.0552227 -0.000560466 -0.0202512)
(-0.0373813 -0.00115769 -0.0395412)
(-0.0115179 -6.46055e-05 -0.0306561)
(-0.00615276 -0.00781214 0.0436909)
(-0.02539 -0.00993356 0.0770266)
(-0.0515214 -0.00864947 0.0829804)
(-0.0763256 -0.00584812 0.0748747)
(-0.0989572 -0.00238236 0.0557933)
(-0.117073 0.000902678 0.023926)
(-0.12503 0.00282949 -0.021651)
(-0.113447 0.00196055 -0.0731118)
(-0.0746695 -0.000561532 -0.103421)
(-0.0222156 -0.000311636 -0.0662499)
(-0.00859933 -0.00890009 0.0483073)
(-0.0357159 -0.0119871 0.0878652)
(-0.0722627 -0.0103461 0.0942499)
(-0.105681 -0.00647862 0.0819271)
(-0.133996 -0.00153098 0.0546092)
(-0.153861 0.00335825 0.0109006)
(-0.15902 0.00640822 -0.0485679)
(-0.140044 0.00548563 -0.111925)
(-0.0904547 0.00146513 -0.143649)
(-0.0263463 -0.000438695 -0.0859667)
(-0.00984771 -0.00644694 0.0490667)
(-0.0412996 -0.00896913 0.0903855)
(-0.0835831 -0.00768495 0.0964641)
(-0.121348 -0.00455757 0.081722)
(-0.151914 -0.000523194 0.0501107)
(-0.171476 0.0034665 0.000683622)
(-0.173953 0.00589028 -0.0648115)
(-0.150706 0.00506479 -0.132665)
(-0.0964894 0.00171622 -0.163772)
(-0.0278592 -0.000279266 -0.0954334)
(-0.0103193 -0.00230464 0.0489874)
(-0.0435623 -0.00325263 0.0906717)
(-0.0882497 -0.00277547 0.0965311)
(-0.12773 -0.00159943 0.0808173)
(-0.159009 -8.02586e-05 0.047567)
(-0.178155 0.00141607 -0.00393208)
(-0.179304 0.00229764 -0.0715011)
(-0.154347 0.00196227 -0.140796)
(-0.0985868 0.000703745 -0.171491)
(-0.0283972 -8.72335e-05 -0.0990253)
(-0.0103193 0.00230465 0.0489874)
(-0.0435623 0.00325263 0.0906717)
(-0.0882497 0.00277546 0.0965311)
(-0.12773 0.00159942 0.0808173)
(-0.159009 8.02513e-05 0.047567)
(-0.178155 -0.00141608 -0.00393208)
(-0.179304 -0.00229764 -0.0715011)
(-0.154347 -0.00196227 -0.140796)
(-0.0985868 -0.000703743 -0.171491)
(-0.0283972 8.72378e-05 -0.0990253)
(-0.00984771 0.00644695 0.0490667)
(-0.0412996 0.00896913 0.0903855)
(-0.0835831 0.00768494 0.0964641)
(-0.121348 0.00455756 0.081722)
(-0.151914 0.000523188 0.0501107)
(-0.171476 -0.0034665 0.000683626)
(-0.173953 -0.00589028 -0.0648115)
(-0.150706 -0.00506479 -0.132665)
(-0.0964894 -0.00171621 -0.163772)
(-0.0278592 0.000279269 -0.0954334)
(-0.00859933 0.0089001 0.0483073)
(-0.0357159 0.0119871 0.0878653)
(-0.0722626 0.0103461 0.0942499)
(-0.105681 0.00647862 0.0819271)
(-0.133996 0.00153098 0.0546092)
(-0.153861 -0.00335825 0.0109007)
(-0.15902 -0.00640822 -0.0485679)
(-0.140044 -0.00548562 -0.111925)
(-0.0904547 -0.00146513 -0.143649)
(-0.0263463 0.000438697 -0.0859667)
(-0.00615275 0.00781215 0.0436909)
(-0.02539 0.00993356 0.0770267)
(-0.0515214 0.00864947 0.0829804)
(-0.0763256 0.00584812 0.0748747)
(-0.0989572 0.00238236 0.0557933)
(-0.117073 -0.000902675 0.023926)
(-0.12503 -0.00282948 -0.021651)
(-0.113447 -0.00196055 -0.0731118)
(-0.0746695 0.000561533 -0.103421)
(-0.0222156 0.000311637 -0.0662499)
(-0.00229599 0.00307065 0.0266267)
(-0.00970408 0.00369299 0.0429662)
(-0.0199567 0.00322871 0.0459708)
(-0.0302059 0.00231241 0.0434527)
(-0.0407992 0.00124771 0.0368101)
(-0.0510422 0.000358711 0.0245305)
(-0.0578369 9.0331e-06 0.00485402)
(-0.0552227 0.000560466 -0.0202512)
(-0.0373813 0.00115769 -0.0395412)
(-0.0115179 6.46057e-05 -0.0306561)
(-0.00380485 -0.00374636 0.0394923)
(-0.01268 -0.00420346 0.059876)
(-0.0225499 -0.00300281 0.0617928)
(-0.0321234 -0.000913387 0.0572886)
(-0.0435417 0.0016868 0.0483267)
(-0.0576595 0.00428982 0.0323047)
(-0.0715558 0.00586056 0.00533086)
(-0.0764542 0.00495529 -0.032677)
(-0.0608557 0.00193811 -0.0675345)
(-0.022234 -0.000386964 -0.0615174)
(-0.00866783 -0.00930265 0.0639472)
(-0.0309792 -0.011053 0.106992)
(-0.0578047 -0.0078113 0.112417)
(-0.0821466 -0.001788 0.10082)
(-0.105674 0.00586328 0.0764822)
(-0.12826 0.0135504 0.0358106)
(-0.144754 0.0182335 -0.0254942)
(-0.142674 0.0158853 -0.102352)
(-0.108454 0.00686923 -0.161444)
(-0.0379724 -0.000932817 -0.125043)
(-0.0114055 -0.01035 0.0707997)
(-0.0423155 -0.0130651 0.122403)
(-0.0801846 -0.00905901 0.128833)
(-0.112929 -0.00125352 0.112693)
(-0.141059 0.00865328 0.0792045)
(-0.163607 0.0182939 0.025163)
(-0.17555 0.0236229 -0.052522)
(-0.165585 0.0200895 -0.145475)
(-0.123196 0.0087701 -0.21177)
(-0.0427181 -0.000632228 -0.155834)
(-0.0126984 -0.00737985 0.0723178)
(-0.0481474 -0.00963662 0.126517)
(-0.0918459 -0.0065894 0.132954)
(-0.128441 -0.000533264 0.114485)
(-0.157698 0.00710098 0.0767719)
(-0.178406 0.0143134 0.0171168)
(-0.18644 0.017896 -0.0668178)
(-0.172314 0.0147542 -0.165524)
(-0.127709 0.00631766 -0.23401)
(-0.0444925 -0.000259898 -0.1693)
(-0.0131495 -0.00261612 0.0725)
(-0.0503903 -0.00346815 0.127333)
(-0.0964159 -0.00235448 0.133694)
(-0.134383 -0.000125806 0.114376)
(-0.16375 0.00266699 0.0752135)
(-0.183336 0.00525998 0.0137479)
(-0.189644 0.00645949 -0.0721386)
(-0.17416 0.00522794 -0.17274)
(-0.1293 0.00221305 -0.24205)
(-0.0452515 -5.1349e-05 -0.174243)
(-0.0131495 0.00261613 0.0725)
(-0.0503903 0.00346815 0.127333)
(-0.0964159 0.00235447 0.133694)
(-0.134383 0.000125796 0.114376)
(-0.16375 -0.002667 0.0752135)
(-0.183336 -0.00525998 0.0137479)
(-0.189644 -0.00645949 -0.0721386)
(-0.17416 -0.00522794 -0.17274)
(-0.1293 -0.00221304 -0.24205)
(-0.0452515 5.1355e-05 -0.174243)
(-0.0126984 0.00737985 0.0723178)
(-0.0481474 0.00963661 0.126517)
(-0.0918459 0.00658939 0.132954)
(-0.128441 0.000533253 0.114485)
(-0.157698 -0.00710099 0.0767719)
(-0.178406 -0.0143134 0.0171168)
(-0.18644 -0.017896 -0.0668178)
(-0.172314 -0.0147542 -0.165524)
(-0.127709 -0.00631766 -0.23401)
(-0.0444925 0.000259903 -0.1693)
(-0.0114055 0.01035 0.0707997)
(-0.0423154 0.0130651 0.122403)
(-0.0801846 0.009059 0.128833)
(-0.112929 0.00125351 0.112693)
(-0.141059 -0.00865328 0.0792045)
(-0.163607 -0.0182939 0.025163)
(-0.17555 -0.0236229 -0.052522)
(-0.165585 -0.0200894 -0.145475)
(-0.123196 -0.0087701 -0.21177)
(-0.0427181 0.00063223 -0.155834)
(-0.00866783 0.00930266 0.0639472)
(-0.0309792 0.011053 0.106992)
(-0.0578047 0.0078113 0.112417)
(-0.0821466 0.001788 0.10082)
(-0.105674 -0.00586327 0.0764822)
(-0.12826 -0.0135504 0.0358106)
(-0.144754 -0.0182335 -0.0254942)
(-0.142674 -0.0158853 -0.102352)
(-0.108454 -0.00686923 -0.161444)
(-0.0379724 0.000932818 -0.125043)
(-0.00380485 0.00374636 0.0394923)
(-0.01268 0.00420346 0.059876)
(-0.0225499 0.00300281 0.0617928)
(-0.0321234 0.000913387 0.0572886)
(-0.0435417 -0.00168679 0.0483267)
(-0.0576595 -0.00428982 0.0323047)
(-0.0715558 -0.00586056 0.00533087)
(-0.0764542 -0.00495529 -0.032677)
(-0.0608557 -0.00193811 -0.0675344)
(-0.022234 0.000386965 -0.0615174)
(-0.00761752 -0.00464638 0.0574605)
(-0.0187131 -0.00471992 0.0773747)
(-0.0247838 -0.00232658 0.0746844)
(-0.0296663 0.00146902 0.0659891)
(-0.0381661 0.00618779 0.0539142)
(-0.0536684 0.0111942 0.0346877)
(-0.0750614 0.0147367 0.00182829)
(-0.0915846 0.0136854 -0.0497622)
(-0.0864951 0.00706974 -0.105517)
(-0.0357141 -0.00119061 -0.113935)
(-0.0139904 -0.0110435 0.0902513)
(-0.0392372 -0.0119162 0.13787)
(-0.0605319 -0.00577925 0.138373)
(-0.0761837 0.00443158 0.121295)
(-0.0918458 0.0171339 0.0923784)
(-0.111257 0.0300341 0.0464049)
(-0.132608 0.0381296 -0.0251108)
(-0.142934 0.033945 -0.125773)
(-0.127525 0.0159447 -0.223616)
(-0.0497857 -0.00371483 -0.21455)
(-0.0167791 -0.0118179 0.0989068)
(-0.050201 -0.0137174 0.157506)
(-0.0815401 -0.00659076 0.160016)
(-0.103276 0.00575532 0.139187)
(-0.120031 0.0208551 0.10198)
(-0.135192 0.0351766 0.0435423)
(-0.148283 0.0424878 -0.0438677)
(-0.149338 0.0354835 -0.162835)
(-0.130936 0.0150275 -0.275344)
(-0.0510573 -0.00340278 -0.255584)
(-0.0178832 -0.00823293 0.100804)
(-0.0552757 -0.00994956 0.162841)
(-0.0915686 -0.00474362 0.166034)
(-0.115686 0.00443697 0.14371)
(-0.13159 0.0155108 0.103346)
(-0.142768 0.0255174 0.040479)
(-0.150423 0.0297538 -0.0522261)
(-0.147388 0.0236823 -0.177605)
(-0.130287 0.00937885 -0.295752)
(-0.0517363 -0.00201072 -0.272173)
(-0.0181994 -0.00288517 0.101071)
(-0.0570261 -0.00355149 0.163985)
(-0.0951334 -0.00168723 0.167392)
(-0.11992 0.00161977 0.14464)
(-0.135117 0.00557296 0.10338)
(-0.144428 0.00905185 0.0392848)
(-0.150046 0.0103565 -0.0549766)
(-0.146108 0.00803396 -0.182638)
(-0.130397 0.00308458 -0.303031)
(-0.0523624 -0.000617775 -0.278264)
(-0.0181995 0.00288517 0.101071)
(-0.0570261 0.00355149 0.163985)
(-0.0951334 0.00168722 0.167392)
(-0.11992 -0.00161978 0.14464)
(-0.135117 -0.00557297 0.10338)
(-0.144428 -0.00905185 0.0392848)
(-0.150046 -0.0103565 -0.0549766)
(-0.146108 -0.00803395 -0.182638)
(-0.130397 -0.00308457 -0.303031)
(-0.0523624 0.000617783 -0.278263)
(-0.0178832 0.00823293 0.100804)
(-0.0552757 0.00994956 0.162841)
(-0.0915686 0.00474361 0.166034)
(-0.115686 -0.00443698 0.14371)
(-0.13159 -0.0155108 0.103346)
(-0.142768 -0.0255174 0.040479)
(-0.150423 -0.0297538 -0.0522261)
(-0.147388 -0.0236823 -0.177605)
(-0.130287 -0.00937885 -0.295752)
(-0.0517363 0.00201073 -0.272173)
(-0.0167791 0.0118179 0.0989068)
(-0.050201 0.0137174 0.157506)
(-0.0815401 0.00659075 0.160016)
(-0.103276 -0.00575532 0.139187)
(-0.120031 -0.0208551 0.10198)
(-0.135192 -0.0351766 0.0435423)
(-0.148283 -0.0424878 -0.0438677)
(-0.149338 -0.0354835 -0.162835)
(-0.130936 -0.0150275 -0.275344)
(-0.0510573 0.00340278 -0.255584)
(-0.0139904 0.0110435 0.0902513)
(-0.0392373 0.0119162 0.13787)
(-0.0605319 0.00577925 0.138373)
(-0.0761837 -0.00443158 0.121295)
(-0.0918458 -0.0171339 0.0923784)
(-0.111257 -0.0300341 0.0464049)
(-0.132608 -0.0381296 -0.0251108)
(-0.142934 -0.033945 -0.125773)
(-0.127525 -0.0159447 -0.223616)
(-0.0497857 0.00371483 -0.21455)
(-0.00761752 0.00464638 0.0574604)
(-0.0187131 0.00471991 0.0773747)
(-0.0247838 0.00232658 0.0746844)
(-0.0296663 -0.00146903 0.0659891)
(-0.0381661 -0.00618779 0.0539142)
(-0.0536684 -0.0111942 0.0346877)
(-0.0750614 -0.0147367 0.0018283)
(-0.0915846 -0.0136854 -0.0497622)
(-0.0864951 -0.00706974 -0.105517)
(-0.0357141 0.00119061 -0.113935)
(-0.0169128 -0.00643388 0.0815586)
(-0.0305234 -0.00631528 0.0914109)
(-0.0225978 -0.00271246 0.0795141)
(-0.0144229 0.00278628 0.0639451)
(-0.0125667 0.00936179 0.0482624)
(-0.022591 0.0165608 0.0275347)
(-0.0474926 0.0224469 -0.00771822)
(-0.0767351 0.0216999 -0.06947)
(-0.0962248 0.0107395 -0.148442)
(-0.0416837 -0.00549544 -0.192803)
(-0.0268536 -0.0142808 0.121002)
(-0.0550647 -0.0147618 0.162456)
(-0.0543957 -0.00617992 0.152386)
(-0.0452534 0.00725356 0.126816)
(-0.0377529 0.0233249 0.0946901)
(-0.038923 0.0399304 0.0500573)
(-0.0541562 0.0518196 -0.0196906)
(-0.073515 0.0474469 -0.131724)
(-0.0976182 0.0204857 -0.268567)
(-0.0364912 -0.0129235 -0.322081)
(-0.0299701 -0.014383 0.129926)
(-0.0654028 -0.0161745 0.185124)
(-0.0718095 -0.00695706 0.178523)
(-0.0640579 0.00792441 0.15056)
(-0.0523409 0.0255197 0.112301)
(-0.0434828 0.042329 0.0581614)
(-0.0455067 0.052005 -0.0237752)
(-0.052617 0.0439128 -0.152676)
(-0.0795536 0.0158661 -0.309836)
(-0.0286818 -0.0109532 -0.363496)
(-0.0308551 -0.00964892 0.131544)
(-0.0692248 -0.0113661 0.191049)
(-0.0789547 -0.00495387 0.186118)
(-0.071679 0.00555245 0.157893)
(-0.057421 0.0178436 0.117954)
(-0.043003 0.029018 0.0608931)
(-0.0385074 0.0343943 -0.0248806)
(-0.0411421 0.0274979 -0.159807)
(-0.0723769 0.00906664 -0.324738)
(-0.0271733 -0.00628653 -0.378931)
(-0.0309999 -0.00331836 0.131675)
(-0.0702227 -0.0039951 0.19222)
(-0.0809868 -0.00175258 0.187879)
(-0.0736885 0.0019412 0.15978)
(-0.0583078 0.00622551 0.119562)
(-0.0417812 0.0100221 0.0617959)
(-0.0352529 0.0116617 -0.0251715)
(-0.0372397 0.00907609 -0.162402)
(-0.0710754 0.00288983 -0.330285)
(-0.0274849 -0.00193095 -0.384654)
(-0.0309999 0.00331836 0.131675)
(-0.0702227 0.00399509 0.19222)
(-0.0809868 0.00175256 0.187879)
(-0.0736885 -0.00194122 0.15978)
(-0.0583078 -0.00622552 0.119562)
(-0.0417812 -0.0100221 0.0617959)
(-0.0352529 -0.0116617 -0.0251715)
(-0.0372397 -0.00907609 -0.162402)
(-0.0710754 -0.00288982 -0.330285)
(-0.0274849 0.00193096 -0.384654)
(-0.0308551 0.00964892 0.131544)
(-0.0692248 0.0113661 0.191049)
(-0.0789547 0.00495385 0.186118)
(-0.071679 -0.00555246 0.157893)
(-0.057421 -0.0178436 0.117954)
(-0.043003 -0.029018 0.0608931)
(-0.0385074 -0.0343943 -0.0248806)
(-0.0411421 -0.0274978 -0.159807)
(-0.0723769 -0.00906663 -0.324738)
(-0.0271733 0.00628654 -0.378931)
(-0.0299701 0.014383 0.129926)
(-0.0654028 0.0161745 0.185124)
(-0.0718095 0.00695705 0.178523)
(-0.064058 -0.00792442 0.15056)
(-0.0523409 -0.0255197 0.112301)
(-0.0434828 -0.042329 0.0581614)
(-0.0455067 -0.052005 -0.0237752)
(-0.052617 -0.0439128 -0.152676)
(-0.0795536 -0.0158661 -0.309836)
(-0.0286818 0.0109532 -0.363496)
(-0.0268536 0.0142808 0.121002)
(-0.0550648 0.0147618 0.162456)
(-0.0543957 0.00617991 0.152386)
(-0.0452534 -0.00725356 0.126816)
(-0.0377529 -0.0233249 0.0946901)
(-0.038923 -0.0399304 0.0500573)
(-0.0541562 -0.0518196 -0.0196906)
(-0.073515 -0.0474469 -0.131724)
(-0.0976182 -0.0204857 -0.268567)
(-0.0364912 0.0129235 -0.322081)
(-0.0169128 0.00643388 0.0815586)
(-0.0305234 0.00631528 0.0914109)
(-0.0225978 0.00271246 0.0795141)
(-0.0144229 -0.00278628 0.0639451)
(-0.0125667 -0.00936179 0.0482624)
(-0.022591 -0.0165608 0.0275347)
(-0.0474926 -0.0224469 -0.00771822)
(-0.0767351 -0.0216999 -0.06947)
(-0.0962248 -0.0107395 -0.148442)
(-0.0416837 0.00549544 -0.192803)
(-0.0239906 -0.0111056 0.150879)
(-0.0215633 -0.0113484 0.0984798)
(0.0248165 -0.00687258 0.0630839)
(0.0577287 -0.0005725 0.0420227)
(0.0783351 0.00645775 0.026134)
(0.0815659 0.0141898 0.0088666)
(0.0606792 0.0216089 -0.0193322)
(0.0243345 0.0212835 -0.076638)
(-0.0425215 0.00611344 -0.17185)
(-0.00694844 -0.0171146 -0.258254)
(-0.0430886 -0.022427 0.210141)
(-0.0446225 -0.0245438 0.168308)
(0.0170596 -0.0156426 0.125727)
(0.070835 -0.00230015 0.0940797)
(0.114652 0.0131915 0.0657379)
(0.143166 0.0296532 0.0332982)
(0.142718 0.0446475 -0.015207)
(0.125248 0.0438185 -0.105436)
(0.0366099 0.0122609 -0.254339)
(0.0425328 -0.0303392 -0.368013)
(-0.0484561 -0.0198502 0.219999)
(-0.0545256 -0.0242727 0.18746)
(0.0060012 -0.0164526 0.147593)
(0.0640758 -0.0035288 0.114976)
(0.116454 0.0119887 0.0832629)
(0.158519 0.0277436 0.0452345)
(0.172051 0.0402246 -0.0102366)
(0.169033 0.036993 -0.109361)
(0.0761253 0.00815468 -0.27401)
(0.0615667 -0.0211618 -0.394073)
(-0.049335 -0.0124096 0.220761)
(-0.0569659 -0.0160581 0.191072)
(0.00226279 -0.011157 0.152988)
(0.0612111 -0.00269786 0.121024)
(0.116271 0.00750573 0.0888749)
(0.16325 0.0176489 0.0491963)
(0.181542 0.0249553 -0.00881213)
(0.182732 0.0220847 -0.111104)
(0.085788 0.00503062 -0.281053)
(0.064536 -0.0108825 -0.403002)
(-0.0492528 -0.00412783 0.220418)
(-0.0570703 -0.00548351 0.191268)
(0.00187541 -0.00384474 0.153807)
(0.061148 -0.000974333 0.122273)
(0.116997 0.00248402 0.090245)
(0.165347 0.00588592 0.0502239)
(0.184699 0.00822316 -0.00866242)
(0.186204 0.00717725 -0.112287)
(0.0867838 0.0017196 -0.284059)
(0.0641504 -0.00318709 -0.406284)
(-0.0492528 0.00412783 0.220418)
(-0.0570703 0.0054835 0.191268)
(0.00187541 0.00384473 0.153807)
(0.061148 0.000974323 0.122273)