/*--------------------------------*- C++ -*----------------------------------*\
  =========                 |
  \\      /  F ield         | OpenFOAM: The Open Source CFD Toolbox
   \\    /   O peration     | Website:  https://openfoam.org
    \\  /    A nd           | Version:  9
     \\/     M anipulation  |
\*---------------------------------------------------------------------------*/
FoamFile
{
    format      ascii;
    class       surfaceScalarField;
    location    "0.23";
    object      phi;
}
// * * * * * * * * * * * * * * * * * * * * * * * * * * * * * * * * * * * * * //

dimensions      [0 3 -1 0 0 0 0];

internalField   nonuniform List<scalar> 
2700
(
-9.52176e-08
-5.55651e-08
1.5078e-07
-3.66288e-07
-4.02142e-08
3.11285e-07
-6.8042e-07
-3.19535e-08
3.46086e-07
-9.54358e-07
-4.04667e-08
3.14404e-07
-1.12495e-06
-6.69528e-08
2.37546e-07
-1.13167e-06
-1.08834e-07
1.15556e-07
-9.31548e-07
-1.54721e-07
-4.54027e-08
-5.50233e-07
-1.77262e-07
-2.04054e-07
-1.42697e-07
-1.4855e-07
-2.58986e-07
-4.1844e-08
-1.00853e-07
-2.02788e-07
-1.02445e-07
2.49668e-07
-7.20752e-07
-1.07517e-07
5.85268e-07
-1.30798e-06
-1.00481e-07
6.55758e-07
-1.80488e-06
-1.10191e-07
5.66625e-07
-2.0987e-06
-1.41968e-07
3.68835e-07
-2.08931e-06
-1.91466e-07
7.32354e-08
-1.70949e-06
-2.41529e-07
-2.93009e-07
-1.01018e-06
-2.61234e-07
-6.1534e-07
-2.75127e-07
-2.17457e-07
-6.66143e-07
-8.30245e-08
-2.33947e-07
-2.49685e-07
-9.95991e-08
2.46839e-07
-8.83051e-07
-1.20262e-07
6.4611e-07
-1.59636e-06
-1.1754e-07
7.30364e-07
-2.1943e-06
-1.23055e-07
6.10809e-07
-2.54181e-06
-1.44434e-07
3.49977e-07
-2.51822e-06
-1.78965e-07
-3.60906e-08
-2.04398e-06
-2.12738e-07
-5.03036e-07
-1.18707e-06
-2.23018e-07
-8.95123e-07
-3.05169e-07
-1.86509e-07
-9.12848e-07
-8.21782e-08
-3.06016e-07
-2.6424e-07
-5.87753e-08
2.23417e-07
-9.46252e-07
-7.53828e-08
6.37133e-07
-1.71545e-06
-7.48776e-08
7.26536e-07
-2.35882e-06
-7.67667e-08
5.97086e-07
-2.73014e-06
-8.62563e-08
3.13133e-07
-2.69787e-06
-1.02195e-07
-1.09033e-07
-2.17699e-06
-1.17792e-07
-6.15833e-07
-1.24509e-06
-1.21541e-07
-1.03337e-06
-3.01377e-07
-1.02392e-07
-1.02783e-06
-4.87511e-08
-3.34804e-07
-2.67097e-07
2.06535e-12
2.08319e-07
-9.65489e-07
1.35876e-12
6.23008e-07
-1.75493e-06
1.02592e-12
7.14561e-07
-2.41538e-06
7.95238e-13
5.83686e-07
-2.79579e-06
5.85709e-13
2.94149e-07
-2.76027e-06
3.99045e-13
-1.37709e-07
-2.22086e-06
2.16323e-13
-6.57202e-07
-1.26001e-06
3.75235e-14
-1.08239e-06
-2.94848e-07
-1.35456e-13
-1.06756e-06
-3.9245e-13
-3.43599e-07
-2.67097e-07
5.87794e-08
2.08319e-07
-9.65489e-07
7.53854e-08
6.23008e-07
-1.75493e-06
7.48796e-08
7.14561e-07
-2.41538e-06
7.67682e-08
5.83685e-07
-2.79579e-06
8.62574e-08
2.94148e-07
-2.76027e-06
1.02195e-07
-1.3771e-07
-2.22086e-06
1.17792e-07
-6.57202e-07
-1.26002e-06
1.21541e-07
-1.08239e-06
-2.94848e-07
1.02391e-07
-1.06756e-06
4.87503e-08
-3.43599e-07
-2.64241e-07
9.96031e-08
2.23417e-07
-9.46253e-07
1.20264e-07
6.37134e-07
-1.71545e-06
1.17541e-07
7.26536e-07
-2.35882e-06
1.23056e-07
5.97086e-07
-2.73014e-06
1.44435e-07
3.13133e-07
-2.69787e-06
1.78966e-07
-1.09034e-07
-2.17699e-06
2.12739e-07
-6.15834e-07
-1.24509e-06
2.23018e-07
-1.03337e-06
-3.01377e-07
1.86509e-07
-1.02783e-06
8.21774e-08
-3.34804e-07
-2.49686e-07
1.02449e-07
2.46839e-07
-8.83052e-07
1.07518e-07
6.46112e-07
-1.59636e-06
1.00482e-07
7.30365e-07
-2.1943e-06
1.10192e-07
6.10808e-07
-2.54181e-06
1.41969e-07
3.49977e-07
-2.51822e-06
1.91467e-07
-3.60912e-08
-2.04398e-06
2.4153e-07
-5.03037e-07
-1.18707e-06
2.61235e-07
-8.95123e-07
-3.05169e-07
2.17457e-07
-9.12848e-07
8.30239e-08
-3.06015e-07
-2.02786e-07
5.55648e-08
2.49671e-07
-7.20753e-07
4.02125e-08
5.85271e-07
-1.30798e-06
3.1954e-08
6.55759e-07
-1.80488e-06
4.04673e-08
5.66625e-07
-2.0987e-06
6.69533e-08
3.68835e-07
-2.08931e-06
1.08835e-07
7.32348e-08
-1.70949e-06
1.54721e-07
-2.9301e-07
-1.01018e-06
1.77262e-07
-6.1534e-07
-2.75127e-07
1.48551e-07
-6.66144e-07
4.18442e-08
-2.33947e-07
-9.5217e-08
1.50781e-07
-3.66292e-07
3.11287e-07
-6.80424e-07
3.46086e-07
-9.54361e-07
3.14404e-07
-1.12495e-06
2.37546e-07
-1.13167e-06
1.15556e-07
-9.3155e-07
-4.54026e-08
-5.50234e-07
-2.04054e-07
-1.42697e-07
-2.58985e-07
-1.00853e-07
-2.46478e-07
-1.54946e-07
5.52204e-07
-7.59328e-07
-1.61645e-07
9.8578e-07
-1.32137e-06
-1.4967e-07
1.0578e-06
-1.80194e-06
-1.4629e-07
9.41265e-07
-2.09919e-06
-1.59368e-07
6.94164e-07
-2.11696e-06
-1.88761e-07
3.22086e-07
-1.7822e-06
-2.24149e-07
-1.56008e-07
-1.11658e-06
-2.32216e-07
-6.37459e-07
-3.58229e-07
-1.7305e-07
-8.4429e-07
-1.40412e-08
-4.45041e-07
-5.81571e-07
-2.31771e-07
9.08065e-07
-1.66932e-06
-2.81716e-07
1.79309e-06
-2.82732e-06
-2.70861e-07
1.93495e-06
-3.78184e-06
-2.63991e-07
1.63884e-06
-4.33368e-06
-2.79524e-07
1.04083e-06
-4.31572e-06
-3.17261e-07
1.83783e-07
-3.60453e-06
-3.60546e-07
-8.67808e-07
-2.27044e-06
-3.64484e-07
-1.81716e-06
-7.6932e-07
-2.80591e-07
-2.05972e-06
-7.09804e-08
-9.46329e-07
-7.46253e-07
-2.03511e-07
9.64833e-07
-2.12507e-06
-2.68828e-07
2.01204e-06
-3.57604e-06
-2.63816e-07
2.17429e-06
-4.75347e-06
-2.55664e-07
1.77991e-06
-5.41345e-06
-2.64943e-07
9.95371e-07
-5.36116e-06
-2.92625e-07
-1.13014e-07
-4.44774e-06
-3.21953e-07
-1.45505e-06
-2.77673e-06
-3.20698e-07
-2.60992e-06
-9.26065e-07
-2.52999e-07
-2.7911e-06
-8.88803e-08
-1.21418e-06
-8.07437e-07
-1.13907e-07
9.4125e-07
-2.31175e-06
-1.57263e-07
2.02988e-06
-3.8914e-06
-1.55946e-07
2.19832e-06
-5.16605e-06
-1.50341e-07
1.76641e-06
-5.87208e-06
-1.53436e-07
9.07657e-07
-5.79904e-06
-1.662e-07
-3.08496e-07
-4.79009e-06
-1.79375e-07
-1.76736e-06
-2.96446e-06
-1.77295e-07
-3.00241e-06
-9.65608e-07
-1.42318e-07
-3.13736e-06
-5.75209e-08
-1.33177e-06
-8.23702e-07
1.47465e-12
9.18113e-07
-2.37056e-06
3.37291e-13
2.0126e-06
-3.99596e-06
1.68729e-13
2.18402e-06
-5.30586e-06
3.8491e-13
1.74324e-06
-6.02899e-06
5.4704e-13
8.63844e-07
-5.94784e-06
6.19866e-13
-3.85061e-07
-4.90308e-06
6.21091e-13
-1.88134e-06
-3.02029e-06
5.62124e-13
-3.14248e-06
-9.7059e-07
3.27787e-13
-3.25957e-06
-2.9842e-14
-1.37171e-06
-8.23702e-07
1.1391e-07
9.18113e-07
-2.37056e-06
1.57264e-07
2.0126e-06
-3.99596e-06
1.55946e-07
2.18402e-06
-5.30586e-06
1.50342e-07
1.74324e-06
-6.02899e-06
1.53437e-07
8.63844e-07
-5.94784e-06
1.66201e-07
-3.85062e-07
-4.90308e-06
1.79376e-07
-1.88134e-06
-3.02029e-06
1.77296e-07
-3.14248e-06
-9.7059e-07
1.42318e-07
-3.25957e-06
5.75208e-08
-1.37171e-06
-8.07437e-07
2.03513e-07
9.4125e-07
-2.31174e-06
2.68827e-07
2.02988e-06
-3.8914e-06
2.63816e-07
2.19832e-06
-5.16605e-06
2.55664e-07
1.76641e-06
-5.87208e-06
2.64944e-07
9.07656e-07
-5.79904e-06
2.92626e-07
-3.08497e-07
-4.79009e-06
3.21955e-07
-1.76736e-06
-2.96446e-06
3.20699e-07
-3.00241e-06
-9.65609e-07
2.53e-07
-3.13736e-06
8.88802e-08
-1.33177e-06
-7.46252e-07
2.31771e-07
9.64833e-07
-2.12507e-06
2.81714e-07
2.01204e-06
-3.57604e-06
2.70861e-07
2.17429e-06
-4.75347e-06
2.63991e-07
1.77991e-06
-5.41345e-06
2.79525e-07
9.9537e-07
-5.36116e-06
3.17262e-07
-1.13015e-07
-4.44774e-06
3.60547e-07
-1.45505e-06
-2.77673e-06
3.64486e-07
-2.60992e-06
-9.26065e-07
2.80591e-07
-2.7911e-06
7.09804e-08
-1.21418e-06
-5.81569e-07
1.54944e-07
9.08066e-07
-1.66932e-06
1.61643e-07
1.79309e-06
-2.82732e-06
1.49669e-07
1.93495e-06
-3.78184e-06
1.46291e-07
1.63884e-06
-4.33368e-06
1.59369e-07
1.04083e-06
-4.31572e-06
1.88762e-07
1.83782e-07
-3.60453e-06
2.2415e-07
-8.67808e-07
-2.27044e-06
2.32217e-07
-1.81716e-06
-7.6932e-07
1.73051e-07
-2.05972e-06
1.40414e-08
-9.46328e-07
-2.46477e-07
5.52202e-07
-7.59328e-07
9.85781e-07
-1.32137e-06
1.0578e-06
-1.80194e-06
9.41265e-07
-2.09919e-06
6.94164e-07
-2.11696e-06
3.22086e-07
-1.78221e-06
-1.56007e-07
-1.11658e-06
-6.37459e-07
-3.58229e-07
-8.44289e-07
-4.4504e-07
-3.53975e-07
-2.43039e-07
1.14922e-06
-1.03445e-06
-2.70097e-07
1.93635e-06
-1.76345e-06
-2.52693e-07
2.03949e-06
-2.39828e-06
-2.35075e-07
1.81118e-06
-2.82942e-06
-2.33105e-07
1.35841e-06
-2.93264e-06
-2.52939e-07
6.78238e-07
-2.57913e-06
-2.85014e-07
-2.24505e-07
-1.72434e-06
-2.91554e-07
-1.20069e-06
-6.22406e-07
-2.14024e-07
-1.7322e-06
4.16295e-09
-1.07161e-06
-8.68078e-07
-3.50497e-07
1.8836e-06
-2.37715e-06
-4.38126e-07
3.4702e-06
-3.9451e-06
-4.18065e-07
3.66827e-06
-5.25339e-06
-3.86813e-07
3.09887e-06
-6.07705e-06
-3.76423e-07
2.0078e-06
-6.1935e-06
-3.94272e-07
4.41559e-07
-5.38025e-06
-4.28237e-07
-1.53783e-06
-3.59594e-06
-4.27794e-07
-3.46524e-06
-1.34556e-06
-3.2566e-07
-4.19846e-06
-5.52619e-08
-2.23247e-06
-1.13289e-06
-2.97716e-07
2.04494e-06
-3.07711e-06
-3.99199e-07
3.91733e-06
-5.07172e-06
-3.85349e-07
4.13619e-06
-6.70551e-06
-3.53735e-07
3.38062e-06
-7.6995e-06
-3.37952e-07
1.95089e-06
-7.79487e-06
-3.45729e-07
-6.61882e-08
-6.72194e-06
-3.62337e-07
-2.59388e-06
-4.45596e-06
-3.56022e-07
-4.94768e-06
-1.64727e-06
-2.79182e-07
-5.64627e-06
-8.13147e-08
-2.8354e-06
-1.23509e-06
-1.62772e-07
2.0414e-06
-3.36862e-06
-2.27057e-07
3.99126e-06
-5.55084e-06
-2.20522e-07
4.21572e-06
-7.32616e-06
-2.01035e-07
3.38904e-06
-8.39337e-06
-1.89141e-07
1.82605e-06
-8.47116e-06
-1.89231e-07
-3.87204e-07
-7.27724e-06
-1.94358e-07
-3.12925e-06
-4.79102e-06
-1.89298e-07
-5.65536e-06
-1.74195e-06
-1.51788e-07
-6.31383e-06
-5.4435e-08
-3.1006e-06
-1.26327e-06
1.2069e-12
2.01861e-06
-3.46055e-06
5.03402e-14
3.98282e-06
-5.70859e-06
-1.55903e-13
4.21154e-06
-7.53458e-06
1.17633e-13
3.3682e-06
-8.62844e-06
2.76908e-13
1.76856e-06
-8.70023e-06
3.37119e-13
-5.02503e-07
-7.46236e-06
3.52076e-13
-3.31356e-06
-4.89652e-06
3.00625e-13
-5.89762e-06
-1.76451e-06
1.34619e-13
-6.54337e-06
5.36806e-14
-3.19065e-06
-1.26327e-06
1.62774e-07
2.01861e-06
-3.46055e-06
2.27057e-07
3.98282e-06
-5.70859e-06
2.20521e-07
4.21154e-06
-7.53458e-06
2.01035e-07
3.3682e-06
-8.62844e-06
1.89142e-07
1.76856e-06
-8.70023e-06
1.89232e-07
-5.02503e-07
-7.46236e-06
1.94359e-07
-3.31356e-06
-4.89652e-06
1.89299e-07
-5.89762e-06
-1.76451e-06
1.51788e-07
-6.54337e-06
5.44351e-08
-3.19065e-06
-1.23509e-06
2.97718e-07
2.0414e-06
-3.36861e-06
3.99199e-07
3.99126e-06
-5.55084e-06
3.85348e-07
4.21572e-06
-7.32616e-06
3.53735e-07
3.38904e-06
-8.39337e-06
3.37952e-07
1.82605e-06
-8.47116e-06
3.45729e-07
-3.87204e-07
-7.27724e-06
3.62337e-07
-3.12925e-06
-4.79102e-06
3.56022e-07
-5.65536e-06
-1.74195e-06
2.79182e-07
-6.31383e-06
8.13147e-08
-3.1006e-06
-1.13289e-06
3.50498e-07
2.04494e-06
-3.0771e-06
4.38125e-07
3.91734e-06
-5.07172e-06
4.18064e-07
4.13619e-06
-6.70551e-06
3.86814e-07
3.38062e-06
-7.6995e-06
3.76424e-07
1.95089e-06
-7.79487e-06
3.94273e-07
-6.6189e-08
-6.72194e-06
4.28237e-07
-2.59388e-06
-4.45596e-06
4.27794e-07
-4.94768e-06
-1.64727e-06
3.2566e-07
-5.64627e-06
5.52618e-08
-2.8354e-06
-8.68077e-07
2.43039e-07
1.8836e-06
-2.37715e-06
2.70096e-07
3.4702e-06
-3.9451e-06
2.52692e-07
3.66828e-06
-5.25339e-06
2.35076e-07
3.09887e-06
-6.07705e-06
2.33106e-07
2.0078e-06
-6.19349e-06
2.5294e-07
4.41559e-07
-5.38025e-06
2.85014e-07
-1.53783e-06
-3.59594e-06
2.91554e-07
-3.46524e-06
-1.34556e-06
2.14024e-07
-4.19846e-06
-4.1633e-09
-2.23246e-06
-3.53976e-07
1.14922e-06
-1.03445e-06
1.93635e-06
-1.76345e-06
2.03949e-06
-2.39828e-06
1.81118e-06
-2.82943e-06
1.35841e-06
-2.93264e-06
6.78238e-07
-2.57913e-06
-2.24505e-07
-1.72434e-06
-1.20069e-06
-6.22406e-07
-1.7322e-06
-1.07161e-06
-4.67052e-07
-3.39007e-07
1.95528e-06
-1.31045e-06
-3.82173e-07
3.16192e-06
-2.20029e-06
-3.51705e-07
3.28103e-06
-3.00799e-06
-3.10821e-07
2.9297e-06
-3.63969e-06
-2.83433e-07
2.27355e-06
-3.94633e-06
-2.82398e-07
1.26727e-06
-3.70753e-06
-3.06508e-07
-1.56804e-07
-2.71285e-06
-3.26405e-07
-1.86896e-06
-1.13085e-06
-2.60692e-07
-3.05351e-06
3.86067e-09
-2.20632e-06
-1.15403e-06
-4.8088e-07
3.1795e-06
-3.06915e-06
-6.00731e-07
5.60388e-06
-5.03517e-06
-5.56951e-07
5.83954e-06
-6.73749e-06
-4.80922e-07
4.9713e-06
-7.96459e-06
-4.1887e-07
3.37034e-06
-8.43858e-06
-3.89741e-07
1.02289e-06
-7.76707e-06
-3.9622e-07
-2.11963e-06
-5.62091e-06
-4.06244e-07
-5.53156e-06
-2.36968e-06
-3.37261e-07
-7.37312e-06
-5.45185e-08
-4.54377e-06
-1.51127e-06
-4.01344e-07
3.47668e-06
-3.99688e-06
-5.33949e-07
6.33616e-06
-6.51927e-06
-4.96781e-07
6.59841e-06
-8.66009e-06
-4.20324e-07
5.46084e-06
-1.01494e-05
-3.5047e-07
3.37183e-06
-1.0659e-05
-3.00441e-07
3.54092e-07
-9.71569e-06
-2.92241e-07
-3.64118e-06
-6.96025e-06
-2.92367e-07
-7.81699e-06
-2.89709e-06
-2.54418e-07
-9.79228e-06
-7.64386e-08
-5.71057e-06
-1.64839e-06
-2.16401e-07
3.50485e-06
-4.38057e-06
-2.9858e-07
6.48806e-06
-7.14584e-06
-2.78171e-07
6.76238e-06
-9.47545e-06
-2.3187e-07
5.53019e-06
-1.1069e-05
-1.88163e-07
3.25727e-06
-1.16013e-05
-1.58766e-07
3.43074e-09
-1.05237e-05
-1.42523e-07
-4.35655e-06
-7.49175e-06
-1.39905e-07
-8.83977e-06
-3.08128e-06
-1.26955e-07
-1.08518e-05
-4.92179e-08
-6.2091e-06
-1.6852e-06
9.5936e-13
3.48741e-06
-4.49865e-06
-8.69351e-15
6.4977e-06
-7.34752e-06
-2.65463e-13
6.78223e-06
-9.74369e-06
-1.17284e-13
5.5325e-06
-1.13793e-05
-9.45127e-14
3.21604e-06
-1.19138e-05
-6.93211e-14
-1.26774e-07
-1.07945e-05
-8.46727e-15
-4.57542e-06
-7.66579e-06
4.29167e-14
-9.16623e-06
-3.13555e-06
1.50052e-13
-1.12006e-05
1.45316e-13
-6.37543e-06
-1.6852e-06
2.16403e-07
3.48741e-06
-4.49865e-06
2.9858e-07
6.4977e-06
-7.34752e-06
2.7817e-07
6.78223e-06
-9.74369e-06
2.3187e-07
5.5325e-06
-1.13793e-05
1.88163e-07
3.21604e-06
-1.19138e-05
1.58766e-07
-1.26774e-07
-1.07945e-05
1.42523e-07
-4.57542e-06
-7.66579e-06
1.39905e-07
-9.16623e-06
-3.13555e-06
1.26956e-07
-1.12006e-05
4.92183e-08
-6.37543e-06
-1.64839e-06
4.01346e-07
3.50485e-06
-4.38057e-06
5.33949e-07
6.48806e-06
-7.14584e-06
4.96781e-07
6.76238e-06
-9.47545e-06
4.20324e-07
5.53019e-06
-1.1069e-05
3.5047e-07
3.25727e-06
-1.16013e-05
3.00441e-07
3.43076e-09
-1.05237e-05
2.92241e-07
-4.35655e-06
-7.49175e-06
2.92367e-07
-8.83977e-06
-3.08128e-06
2.54418e-07
-1.08518e-05
7.64389e-08
-6.2091e-06
-1.51127e-06
4.80881e-07
3.47668e-06
-3.99688e-06
6.00731e-07
6.33616e-06
-6.51927e-06
5.56951e-07
6.59841e-06
-8.66009e-06
4.80922e-07
5.46084e-06
-1.01494e-05
4.1887e-07
3.37183e-06
-1.0659e-05
3.89741e-07
3.54092e-07
-9.71569e-06
3.9622e-07
-3.64117e-06
-6.96025e-06
4.06244e-07
-7.81699e-06
-2.89709e-06
3.37261e-07
-9.79228e-06
5.45185e-08
-5.71057e-06
-1.15403e-06
3.39008e-07
3.1795e-06
-3.06915e-06
3.82173e-07
5.60388e-06
-5.03517e-06
3.51705e-07
5.83954e-06
-6.73749e-06
3.10821e-07
4.9713e-06
-7.96459e-06
2.83433e-07
3.37034e-06
-8.43858e-06
2.82398e-07
1.02289e-06
-7.76707e-06
3.06507e-07
-2.11963e-06
-5.62091e-06
3.26404e-07
-5.53156e-06
-2.36968e-06
2.60691e-07
-7.37312e-06
-3.86078e-09
-4.54377e-06
-4.67053e-07
1.95528e-06
-1.31045e-06
3.16192e-06
-2.20029e-06
3.28103e-06
-3.00799e-06
2.9297e-06
-3.63969e-06
2.27355e-06
-3.94633e-06
1.26727e-06
-3.70753e-06
-1.56803e-07
-2.71285e-06
-1.86896e-06
-1.13085e-06
-3.05351e-06
-2.20632e-06
-6.34542e-07
-4.5135e-07
3.04117e-06
-1.65318e-06
-5.01455e-07
4.68202e-06
-2.69097e-06
-4.34318e-07
4.75314e-06
-3.67687e-06
-3.34589e-07
4.25018e-06
-4.57416e-06
-2.34454e-07
3.4053e-06
-5.23728e-06
-1.5508e-07
2.08547e-06
-5.32326e-06
-1.17407e-07
4.6584e-08
-4.34169e-06
-1.58334e-07
-2.6922e-06
-2.13624e-06
-1.98095e-07
-5.06087e-06
-2.37286e-08
-4.31883e-06
-1.52525e-06
-6.28897e-07
4.8823e-06
-3.87499e-06
-7.68658e-07
8.22082e-06
-6.23079e-06
-6.64289e-07
8.42531e-06
-8.34794e-06
-4.86344e-07
7.24021e-06
-1.00876e-05
-2.97142e-07
5.17269e-06
-1.11455e-05
-1.33395e-07
2.0591e-06
-1.09363e-05
-2.97117e-08
-2.41654e-06
-8.67094e-06
-5.89849e-08
-7.89625e-06
-4.20553e-06
-1.62364e-07
-1.18743e-05
-7.39757e-08
-8.69905e-06
-1.97688e-06
-5.163e-07
5.34096e-06
-5.03224e-06
-6.69944e-07
9.29281e-06
-8.07259e-06
-5.77254e-07
9.55172e-06
-1.07418e-05
-4.05378e-07
8.04911e-06
-1.28396e-05
-2.17208e-07
5.3897e-06
-1.39758e-05
-4.99733e-08
1.40686e-06
-1.34995e-05
6.62718e-08
-4.21346e-06
-1.05383e-05
5.11522e-08
-1.08884e-05
-5.03366e-06
-6.72403e-08
-1.5392e-05
-7.39299e-08
-1.07443e-05
-2.14336e-06
-2.74944e-07
5.40685e-06
-5.49641e-06
-3.69527e-07
9.5407e-06
-8.83019e-06
-3.17463e-07
9.83638e-06
-1.1733e-05
-2.16337e-07
8.24392e-06
-1.39793e-05
-1.03274e-07
5.38969e-06
-1.51248e-05
-7.79195e-10
1.09971e-06
-1.45237e-05
6.71529e-08
-4.95853e-06
-1.12598e-05
5.85227e-08
-1.21111e-05
-5.33331e-06
-1.63943e-08
-1.68291e-05
-4.09861e-08
-1.15754e-05
-2.18443e-06
7.40161e-13
5.39689e-06
-5.63129e-06
-7.71567e-15
9.57502e-06
-9.06235e-06
-3.54091e-13
9.89584e-06
-1.20448e-05
-3.95466e-13
8.29861e-06
-1.43406e-05
-4.54276e-13
5.40858e-06
-1.55073e-05
-3.83261e-13
1.03907e-06
-1.48667e-05
-1.2081e-13
-5.14879e-06
-1.15033e-05
1.19288e-13
-1.24712e-05
-5.4336e-06
4.06381e-13
-1.72866e-05
2.43953e-13
-1.185e-05
-2.18443e-06
2.74945e-07
5.39689e-06
-5.63129e-06
3.69527e-07
9.57502e-06
-9.06235e-06
3.17462e-07
9.89584e-06
-1.20448e-05
2.16336e-07
8.29861e-06
-1.43406e-05
1.03274e-07
5.40858e-06
-1.55073e-05
7.78706e-10
1.03907e-06
-1.48667e-05
-6.7153e-08
-5.14879e-06
-1.15033e-05
-5.85224e-08
-1.24712e-05
-5.4336e-06
1.63952e-08
-1.72866e-05
4.09866e-08
-1.185e-05
-2.14336e-06
5.16301e-07
5.40685e-06
-5.49641e-06
6.69944e-07
9.5407e-06
-8.83019e-06
5.77254e-07
9.83638e-06
-1.1733e-05
4.05377e-07
8.24392e-06
-1.39793e-05
2.17208e-07
5.38969e-06
-1.51248e-05
4.9973e-08
1.09972e-06
-1.45237e-05
-6.62716e-08
-4.95853e-06
-1.12598e-05
-5.11517e-08
-1.21111e-05
-5.33331e-06
6.72411e-08
-1.68291e-05
7.39303e-08
-1.15754e-05
-1.97688e-06
6.28898e-07
5.34096e-06
-5.03224e-06
7.68658e-07
9.29281e-06
-8.07259e-06
6.64289e-07
9.55172e-06
-1.07418e-05
4.86344e-07
8.04911e-06
-1.28396e-05
2.97142e-07
5.3897e-06
-1.39758e-05
1.33395e-07
1.40686e-06
-1.34995e-05
2.9712e-08
-4.21346e-06
-1.05383e-05
5.89853e-08
-1.08884e-05
-5.03366e-06
1.62365e-07
-1.5392e-05
7.39759e-08
-1.07443e-05
-1.52525e-06
4.51351e-07
4.8823e-06
-3.87499e-06
5.01455e-07
8.22082e-06
-6.23079e-06
4.34319e-07
8.42531e-06
-8.34794e-06
3.34589e-07
7.2402e-06
-1.00876e-05
2.34454e-07
5.17269e-06
-1.11455e-05
1.5508e-07
2.0591e-06
-1.09363e-05
1.17407e-07
-2.41654e-06
-8.67094e-06
1.58334e-07
-7.89625e-06
-4.20553e-06
1.98095e-07
-1.18743e-05
2.3729e-08
-8.69905e-06
-6.34542e-07
3.04117e-06
-1.65318e-06
4.68202e-06
-2.69097e-06
4.75314e-06
-3.67687e-06
4.25018e-06
-4.57416e-06
3.4053e-06
-5.23728e-06
2.08547e-06
-5.32326e-06
4.65846e-08
-4.34169e-06
-2.6922e-06
-2.13624e-06
-5.06087e-06
-4.31883e-06
-9.29758e-07
-5.86969e-07
4.5579e-06
-2.10382e-06
-6.17765e-07
6.47385e-06
-3.18729e-06
-4.56817e-07
6.29343e-06
-4.24842e-06
-2.1611e-07
5.52742e-06
-5.38035e-06
6.7951e-08
4.46928e-06
-6.51793e-06
3.52524e-07
2.87053e-06
-7.22406e-06
5.5744e-07
1.95273e-07
-6.62792e-06
4.94244e-07
-3.78258e-06
-3.88566e-06
1.73497e-07
-7.97662e-06
-9.14455e-08
-8.11304e-06
-2.06786e-06
-7.97721e-07
7.16091e-06
-4.81966e-06
-9.26011e-07
1.12809e-05
-7.3857e-06
-6.84063e-07
1.12186e-05
-9.69756e-06
-2.88162e-07
9.62411e-06
-1.17856e-05
1.8379e-07
7.14493e-06
-1.34507e-05
6.65459e-07
3.41127e-06
-1.40169e-05
1.00953e-06
-2.30246e-06
-1.2197e-05
9.38214e-07
-1.01602e-05
-6.85484e-06
3.97003e-07
-1.74399e-05
-1.17037e-07
-1.55283e-05
-2.60547e-06
-6.41988e-07
7.7907e-06
-6.17547e-06
-7.93661e-07
1.27305e-05
-9.50698e-06
-5.84633e-07
1.27838e-05
-1.24048e-05
-2.24029e-07
1.08828e-05
-1.48284e-05
2.08005e-07
7.7891e-06
-1.64982e-05
6.43366e-07
3.09881e-06
-1.6719e-05
9.43911e-07
-3.92703e-06
-1.41915e-05
8.74309e-07
-1.3352e-05
-7.83176e-06
3.86481e-07
-2.17413e-05
-8.12672e-08
-1.86118e-05
-2.78668e-06
-3.37218e-07
7.88876e-06
-6.68487e-06
-4.32752e-07
1.3078e-05
-1.03311e-05
-3.17863e-07
1.32158e-05
-1.34629e-05
-1.1396e-07
1.12656e-05
-1.60045e-05
1.30213e-07
8.00916e-06
-1.76445e-05
3.73471e-07
3.00955e-06
-1.77031e-05
5.34121e-07
-4.4901e-06
-1.48992e-05
4.89445e-07
-1.45301e-05
-8.18149e-06
2.19064e-07
-2.33794e-05
-3.55387e-08
-1.98026e-05
-2.82349e-06
5.07643e-13
7.88316e-06
-6.81673e-06
-1.06508e-14
1.31355e-05
-1.05611e-05
-4.16227e-13
1.33224e-05
-1.37701e-05
-5.50332e-13
1.13936e-05
-1.63569e-05
-5.72389e-13
8.12563e-06
-1.80031e-05
-3.60223e-13
3.05871e-06
-1.80296e-05
-9.00659e-15
-4.58822e-06
-1.51524e-05
1.25512e-13
-1.48589e-05
-8.31763e-06
2.42517e-13
-2.39023e-05
3.94874e-13
-2.02032e-05
-2.82349e-06
3.37219e-07
7.88316e-06
-6.81673e-06
4.32752e-07
1.31355e-05
-1.05611e-05
3.17863e-07
1.33224e-05
-1.37701e-05
1.13959e-07
1.13936e-05
-1.63569e-05
-1.30214e-07
8.12563e-06
-1.80031e-05
-3.73472e-07
3.05871e-06
-1.80296e-05
-5.34121e-07
-4.58822e-06
-1.51524e-05
-4.89444e-07
-1.48589e-05
-8.31763e-06
-2.19063e-07
-2.39023e-05
3.55394e-08
-2.02032e-05
-2.78668e-06
6.41989e-07
7.88876e-06
-6.68487e-06
7.93661e-07
1.3078e-05
-1.03311e-05
5.84632e-07
1.32158e-05
-1.34629e-05
2.24028e-07
1.12656e-05
-1.60045e-05
-2.08006e-07
8.00916e-06
-1.76445e-05
-6.43366e-07
3.00956e-06
-1.77031e-05
-9.43911e-07
-4.4901e-06
-1.48992e-05
-8.74309e-07
-1.45301e-05
-8.18149e-06
-3.8648e-07
-2.33794e-05
8.12677e-08
-1.98026e-05
-2.60547e-06
7.97722e-07
7.7907e-06
-6.17547e-06
9.26011e-07
1.27305e-05
-9.50698e-06
6.84063e-07
1.27838e-05
-1.24048e-05
2.88161e-07
1.08828e-05
-1.48284e-05
-1.8379e-07
7.7891e-06
-1.64982e-05
-6.65459e-07
3.09881e-06
-1.6719e-05
-1.00953e-06
-3.92703e-06
-1.41915e-05
-9.38213e-07
-1.3352e-05
-7.83176e-06
-3.97002e-07
-2.17413e-05
1.17037e-07
-1.86118e-05
-2.06786e-06
5.8697e-07
7.16091e-06
-4.81966e-06
6.17765e-07
1.12809e-05
-7.3857e-06
4.56817e-07
1.12186e-05
-9.69756e-06
2.16109e-07
9.62411e-06
-1.17856e-05
-6.79511e-08
7.14493e-06
-1.34507e-05
-3.52524e-07
3.41128e-06
-1.40169e-05
-5.57439e-07
-2.30246e-06
-1.2197e-05
-4.94244e-07
-1.01602e-05
-6.85484e-06
-1.73496e-07
-1.74399e-05
9.14455e-08
-1.55283e-05
-9.29759e-07
4.5579e-06
-2.10382e-06
6.47385e-06
-3.18729e-06
6.29343e-06
-4.24842e-06
5.52742e-06
-5.38035e-06
4.46928e-06
-6.51793e-06
2.87053e-06
-7.22406e-06
1.95273e-07
-6.62792e-06
-3.78258e-06
-3.88566e-06
-7.97662e-06
-8.11304e-06
-1.55269e-06
-7.6498e-07
6.87557e-06
-2.69744e-06
-7.35129e-07
8.35373e-06
-3.48343e-06
-3.85747e-07
7.46516e-06
-4.26721e-06
1.05633e-07
6.20557e-06
-5.35447e-06
6.94046e-07
4.8625e-06
-6.87638e-06
1.34355e-06
3.04889e-06
-8.461e-06
1.86784e-06
-8.79517e-08
-8.85535e-06
1.81235e-06
-5.20058e-06
-6.16672e-06
9.56003e-07
-1.16213e-05
-2.04186e-07
-1.40756e-05
-2.97497e-06
-1.00253e-06
1.03734e-05
-5.82923e-06
-1.07454e-06
1.44745e-05
-7.97036e-06
-5.86876e-07
1.35609e-05
-9.71173e-06
1.58226e-07
1.13129e-05
-1.13968e-05
1.06163e-06
8.4624e-06
-1.31275e-05
2.01761e-06
4.46797e-06
-1.44488e-05
2.71827e-06
-1.83165e-06
-1.39037e-05
2.56102e-06
-1.14539e-05
-9.17211e-06
1.277e-06
-2.24925e-05
-2.67212e-07
-2.46374e-05
-3.55809e-06
-7.85348e-07
1.11316e-05
-7.26578e-06
-9.06165e-07
1.62698e-05
-1.01166e-05
-5.06095e-07
1.55538e-05
-1.22711e-05
1.36794e-07
1.30587e-05
-1.39996e-05
9.12823e-07
9.66639e-06
-1.53911e-05
1.71111e-06
4.79676e-06
-1.61092e-05
2.24838e-06
-2.73898e-06
-1.49325e-05
2.05262e-06
-1.40203e-05
-9.69478e-06
9.72142e-07
-2.66741e-05
-1.89573e-07
-2.83842e-05
-3.72236e-06
-4.0577e-07
1.12315e-05
-7.74273e-06
-4.89261e-07
1.66814e-05
-1.08665e-05
-2.76782e-07
1.61103e-05
-1.31658e-05
7.3904e-08
1.36278e-05
-1.48753e-05
4.96263e-07
1.01352e-05
-1.60887e-05
9.21571e-07
5.01242e-06
-1.65593e-05
1.19148e-06
-2.96259e-06
-1.52016e-05
1.06531e-06
-1.49005e-05
-9.8859e-06
4.91552e-07
-2.82145e-05
-8.30738e-08
-2.9795e-05
-3.7408e-06
2.56853e-13
1.12182e-05
-7.83708e-06
-4.47905e-14
1.67425e-05
-1.10363e-05
-5.15047e-13
1.62448e-05
-1.33807e-05
-7.26275e-13
1.38119e-05
-1.50932e-05
-6.86345e-13
1.03344e-05
-1.6276e-05
-3.3546e-13
5.16303e-06
-1.67115e-05
-2.29314e-14
-2.96119e-06
-1.53419e-05
5.92936e-14
-1.51632e-05
-1.00077e-05
2.31031e-13
-2.8745e-05
5.02055e-13
-3.0294e-05
-3.7408e-06
4.05771e-07
1.12182e-05
-7.83708e-06
4.8926e-07
1.67425e-05
-1.10363e-05
2.76781e-07
1.62448e-05
-1.33807e-05
-7.39053e-08
1.38119e-05
-1.50932e-05
-4.96265e-07
1.03344e-05
-1.6276e-05
-9.21572e-07
5.16303e-06
-1.67115e-05
-1.19148e-06
-2.96119e-06
-1.53419e-05
-1.06531e-06
-1.51632e-05
-1.00077e-05
-4.91552e-07
-2.8745e-05
8.30746e-08
-3.0294e-05
-3.72236e-06
7.85349e-07
1.12315e-05
-7.74273e-06
9.06165e-07
1.66814e-05
-1.08665e-05
5.06095e-07
1.61103e-05
-1.31658e-05
-1.36795e-07
1.36278e-05
-1.48753e-05
-9.12823e-07
1.01352e-05
-1.60887e-05
-1.71111e-06
5.01242e-06
-1.65593e-05
-2.24838e-06
-2.96259e-06
-1.52016e-05
-2.05262e-06
-1.49005e-05
-9.8859e-06
-9.72141e-07
-2.82145e-05
1.89573e-07
-2.9795e-05
-3.55809e-06
1.00253e-06
1.11316e-05
-7.26578e-06
1.07454e-06
1.62698e-05
-1.01166e-05
5.86875e-07
1.55538e-05
-1.22711e-05
-1.58227e-07
1.30587e-05
-1.39996e-05
-1.06163e-06
9.66639e-06
-1.53911e-05
-2.01761e-06
4.79677e-06
-1.61092e-05
-2.71827e-06
-2.73898e-06
-1.49325e-05
-2.56102e-06
-1.40203e-05
-9.69478e-06
-1.277e-06
-2.66741e-05
2.67212e-07
-2.83842e-05
-2.97497e-06
7.6498e-07
1.03734e-05
-5.82923e-06
7.3513e-07
1.44745e-05
-7.97036e-06
3.85747e-07
1.35609e-05
-9.71173e-06
-1.05633e-07
1.13129e-05
-1.13968e-05
-6.94046e-07
8.4624e-06
-1.31275e-05
-1.34355e-06
4.46797e-06
-1.44488e-05
-1.86784e-06
-1.83165e-06
-1.39037e-05
-1.81235e-06
-1.14539e-05
-9.17211e-06
-9.56003e-07
-2.24925e-05
2.04186e-07
-2.46374e-05
-1.55269e-06
6.87556e-06
-2.69744e-06
8.35373e-06
-3.48343e-06
7.46516e-06
-4.26721e-06
6.20557e-06
-5.35447e-06
4.8625e-06
-6.87638e-06
3.04889e-06
-8.461e-06
-8.79515e-08
-8.85535e-06
-5.20058e-06
-6.16672e-06
-1.16213e-05
-1.40756e-05
-2.80198e-06
-1.0473e-06
1.07248e-05
-3.154e-06
-9.4135e-07
9.64711e-06
-2.75293e-06
-3.55997e-07
7.42008e-06
-2.4645e-06
4.23499e-07
5.49365e-06
-2.84791e-06
1.32313e-06
3.92278e-06
-4.25125e-06
2.32777e-06
2.12445e-06
-6.68409e-06
3.22137e-06
-8.76478e-07
-8.69487e-06
3.2344e-06
-6.4242e-06
-7.53332e-06
1.71168e-06
-1.44945e-05
-7.03904e-07
-2.0905e-05
-4.75406e-06
-1.30719e-06
1.53874e-05
-6.44682e-06
-1.33517e-06
1.65611e-05
-6.50686e-06
-5.76658e-07
1.38416e-05
-6.06044e-06
5.06868e-07
1.07831e-05
-5.86322e-06
1.78433e-06
7.80399e-06
-6.42282e-06
3.13776e-06
4.21758e-06
-7.90581e-06
4.19964e-06
-1.32693e-06
-9.36753e-06
3.98263e-06
-1.07404e-05
-7.9569e-06
1.82717e-06
-2.40186e-05
-9.23931e-07
-3.23743e-05
-5.40168e-06
-9.87838e-07
1.62139e-05
-7.81246e-06
-1.10017e-06
1.84456e-05
-8.2583e-06
-5.14601e-07
1.59376e-05
-7.76027e-06
3.68937e-07
1.26986e-05
-7.04764e-06
1.41015e-06
9.32794e-06
-6.70221e-06
2.48423e-06
5.10486e-06
-7.14813e-06
3.24964e-06
-1.34307e-06
-8.09622e-06
2.95534e-06
-1.20449e-05
-7.05457e-06
1.2477e-06
-2.71363e-05
-6.3039e-07
-3.57323e-05
-5.53365e-06
-4.9982e-07
1.62772e-05
-8.17484e-06
-5.86055e-07
1.88085e-05
-8.76376e-06
-2.87455e-07
1.64721e-05
-8.23983e-06
1.78083e-07
1.32947e-05
-7.30851e-06
7.29024e-07
9.88502e-06
-6.5928e-06
1.28796e-06
5.49299e-06
-6.68055e-06
1.66438e-06
-1.28958e-06
-7.58083e-06
1.47947e-06
-1.25243e-05
-6.84269e-06
6.0665e-07
-2.83116e-05
-2.74981e-07
-3.69931e-05
-5.5246e-06
-5.92962e-14
1.6243e-05
-8.20007e-06
-3.39058e-13
1.88319e-05
-8.81636e-06
-8.16808e-13
1.65736e-05
-8.28402e-06
-9.90892e-13
1.34577e-05
-7.29812e-06
-8.08618e-13
1.00776e-05
-6.50312e-06
-2.18071e-13
5.656e-06
-6.54953e-06
2.22465e-13
-1.2504e-06
-7.52087e-06
1.32436e-13
-1.27124e-05
-6.896e-06
3.24336e-13
-2.87632e-05
6.24202e-13
-3.7465e-05
-5.5246e-06
4.99819e-07
1.6243e-05
-8.20007e-06
5.86054e-07
1.88319e-05
-8.81636e-06
2.87453e-07
1.65736e-05
-8.28402e-06
-1.78085e-07
1.34577e-05
-7.29812e-06
-7.29026e-07
1.00776e-05
-6.50312e-06
-1.28796e-06
5.656e-06
-6.54953e-06
-1.66438e-06
-1.2504e-06
-7.52087e-06
-1.47947e-06
-1.27124e-05
-6.896e-06
-6.0665e-07
-2.87632e-05
2.74982e-07
-3.7465e-05
-5.53365e-06
9.87838e-07
1.62772e-05
-8.17484e-06
1.10017e-06
1.88085e-05
-8.76376e-06
5.14599e-07
1.64721e-05
-8.23983e-06
-3.68939e-07
1.32947e-05
-7.30851e-06
-1.41015e-06
9.88502e-06
-6.5928e-06
-2.48423e-06
5.49299e-06
-6.68055e-06
-3.24964e-06
-1.28958e-06
-7.58083e-06
-2.95534e-06
-1.25243e-05
-6.84269e-06
-1.2477e-06
-2.83116e-05
6.30391e-07
-3.69931e-05
-5.40168e-06
1.30719e-06
1.62139e-05
-7.81246e-06
1.33517e-06
1.84456e-05
-8.2583e-06
5.76658e-07
1.59376e-05
-7.76027e-06
-5.06869e-07
1.26986e-05
-7.04765e-06
-1.78433e-06
9.32794e-06
-6.70222e-06
-3.13776e-06
5.10486e-06
-7.14813e-06
-4.19964e-06
-1.34307e-06
-8.09622e-06
-3.98263e-06
-1.20449e-05
-7.05457e-06
-1.82717e-06
-2.71363e-05
9.23931e-07
-3.57323e-05
-4.75406e-06
1.0473e-06
1.53874e-05
-6.44682e-06
9.4135e-07
1.65611e-05
-6.50686e-06
3.55997e-07
1.38416e-05
-6.06044e-06
-4.235e-07
1.07831e-05
-5.86323e-06
-1.32313e-06
7.80399e-06
-6.42282e-06
-2.32777e-06
4.21758e-06
-7.90581e-06
-3.22137e-06
-1.32693e-06
-9.36753e-06
-3.2344e-06
-1.07404e-05
-7.9569e-06
-1.71168e-06
-2.40186e-05
7.03903e-07
-3.23743e-05
-2.80198e-06
1.07248e-05
-3.154e-06
9.64711e-06
-2.75293e-06
7.42008e-06
-2.46451e-06
5.49365e-06
-2.84792e-06
3.92278e-06
-4.25125e-06
2.12445e-06
-6.68409e-06
-8.76478e-07
-8.69487e-06
-6.4242e-06
-7.53332e-06
-1.44945e-05
-2.0905e-05
-2.86009e-06
-1.71457e-06
1.52995e-05
-1.57042e-07
-1.58544e-06
8.52951e-06
3.36747e-06
-8.18163e-07
4.71374e-06
5.86872e-06
8.09692e-08
2.91142e-06
7.00228e-06
1.0853e-06
1.70392e-06
6.37706e-06
2.17015e-06
5.79512e-07
3.53772e-06
3.29873e-06
-1.33587e-06
-9.21782e-07
3.41614e-06
-5.38083e-06
-3.56527e-06
1.32238e-06
-1.31734e-05
-2.30116e-06
-2.21691e-05
-5.16501e-06
-1.89927e-06
2.07371e-05
-1.81939e-06
-2.06639e-06
1.36965e-05
3.27251e-06
-1.24164e-06
9.17314e-06
7.7785e-06
-7.92293e-08
6.4373e-06
1.1158e-05
1.20541e-06
4.30435e-06
1.27764e-05
2.58995e-06
2.17944e-06
1.17201e-05
3.87386e-06
-8.45745e-07
7.64736e-06
3.80356e-06
-7.05512e-06
2.37872e-06
1.178e-06
-1.86056e-05
-2.22742e-06
-3.00693e-05
-5.88575e-06
-1.3357e-06
2.15361e-05
-2.74053e-06
-1.60745e-06
1.48414e-05
2.50489e-06
-1.04552e-06
1.04961e-05
7.6205e-06
-1.82151e-07
7.68595e-06
1.19841e-05
8.22197e-07
5.34756e-06
1.48918e-05
1.88571e-06
2.90141e-06
1.5067e-05
2.81034e-06
-4.54735e-07
1.14938e-05
2.71265e-06
-7.38084e-06
4.66378e-06
8.37756e-07
-1.9966e-05
-1.32895e-06
-3.1967e-05
-5.95941e-06
-6.51033e-07
2.15519e-05
-2.88217e-06
-8.30212e-07
1.4954e-05
2.37358e-06
-5.62857e-07
1.07337e-05
7.63392e-06
-1.32368e-07
7.98461e-06
1.23066e-05
3.8475e-07
5.6498e-06
1.56242e-05
9.31551e-07
3.12954e-06