/*--------------------------------*- C++ -*----------------------------------*\
  =========                 |
  \\      /  F ield         | OpenFOAM: The Open Source CFD Toolbox
   \\    /   O peration     | Website:  https://openfoam.org
    \\  /    A nd           | Version:  9
     \\/     M anipulation  |
\*---------------------------------------------------------------------------*/
FoamFile
{
    format      ascii;
    class       volVectorField;
    location    "0.38";
    object      U;
}
// * * * * * * * * * * * * * * * * * * * * * * * * * * * * * * * * * * * * * //

dimensions      [0 1 -1 0 0 0 0];

internalField   nonuniform List<vector> 
1000
(
(-7.90426e-05 -0.000395089 0.000363811)
(-0.0016657 -0.000309109 0.00104231)
(-0.00483861 -0.000255649 0.00130669)
(-0.00804763 -0.000345013 0.00135484)
(-0.0106718 -0.000596934 0.00123536)
(-0.0119281 -0.000979278 0.000891111)
(-0.0110328 -0.00137203 0.000313748)
(-0.00771649 -0.00154131 -0.000308083)
(-0.00274298 -0.00125163 -0.000479073)
(-5.27868e-06 -0.000363233 0.000162349)
(-0.000311845 -0.00130549 0.00060419)
(-0.00366057 -0.00145763 0.00211449)
(-0.0100129 -0.00145796 0.00267783)
(-0.0162939 -0.00170885 0.00262504)
(-0.0212369 -0.00230823 0.00208381)
(-0.0234106 -0.00318256 0.00099428)
(-0.0214363 -0.00403664 -0.000554719)
(-0.0149193 -0.00431133 -0.00195352)
(-0.00548247 -0.00348926 -0.00200406)
(-0.000188313 -0.00126546 -5.07634e-05)
(-0.000460132 -0.00184899 0.000382076)
(-0.00485767 -0.00244906 0.0022031)
(-0.0130514 -0.00260098 0.00288198)
(-0.0210572 -0.00291103 0.00272045)
(-0.0272414 -0.00355054 0.00186174)
(-0.0298005 -0.00444759 0.000255015)
(-0.0270014 -0.00524043 -0.00192906)
(-0.0184254 -0.00537256 -0.00370068)
(-0.00634605 -0.0043454 -0.00339098)
(5.3699e-05 -0.00184226 -0.000298477)
(-0.000525908 -0.00150921 9.71244e-05)
(-0.00550185 -0.0021184 0.00197771)
(-0.0147422 -0.00228654 0.00268892)
(-0.0237263 -0.00252124 0.00246282)
(-0.030603 -0.00297271 0.0014256)
(-0.0333016 -0.00359077 -0.000476977)
(-0.0298932 -0.00409008 -0.00300913)
(-0.0200306 -0.00411021 -0.00493261)
(-0.00642138 -0.0033303 -0.00429477)
(0.000388145 -0.00151173 -0.000443385)
(-0.00054909 -0.000571644 -7.1605e-05)
(-0.00577694 -0.000820523 0.00180418)
(-0.0154857 -0.000890635 0.00252321)
(-0.0249095 -0.000975212 0.00227193)
(-0.032092 -0.00113211 0.0011601)
(-0.0348365 -0.00134321 -0.000873197)
(-0.0311182 -0.00151144 -0.00354654)
(-0.0206364 -0.00150702 -0.00551714)
(-0.00633371 -0.00122379 -0.00470446)
(0.000594607 -0.000572698 -0.00050182)
(-0.000549088 0.000571614 -7.16022e-05)
(-0.00577694 0.000820491 0.00180418)
(-0.0154857 0.00089061 0.00252321)
(-0.0249095 0.000975194 0.00227194)
(-0.032092 0.0011321 0.0011601)
(-0.0348364 0.0013432 -0.000873197)
(-0.0311182 0.00151143 -0.00354654)
(-0.0206364 0.00150702 -0.00551714)
(-0.00633371 0.00122379 -0.00470446)
(0.000594607 0.000572693 -0.00050182)
(-0.000525899 0.00150916 9.71355e-05)
(-0.00550183 0.00211835 0.00197772)
(-0.0147421 0.00228651 0.00268893)
(-0.0237263 0.00252122 0.00246282)
(-0.030603 0.0029727 0.00142561)
(-0.0333016 0.00359077 -0.000476977)
(-0.0298932 0.00409007 -0.00300913)
(-0.0200306 0.00411021 -0.00493261)
(-0.00642137 0.0033303 -0.00429478)
(0.000388145 0.00151172 -0.000443385)
(-0.000460104 0.00184888 0.000382106)
(-0.00485763 0.00244899 0.00220312)
(-0.0130513 0.00260094 0.002882)
(-0.0210572 0.00291101 0.00272046)
(-0.0272414 0.00355053 0.00186174)
(-0.0298005 0.00444758 0.000255015)
(-0.0270013 0.00524043 -0.00192906)
(-0.0184254 0.00537255 -0.00370068)
(-0.00634604 0.0043454 -0.00339098)
(5.36992e-05 0.00184226 -0.000298477)
(-0.000311762 0.00130519 0.000604275)
(-0.00366045 0.00145751 0.00211454)
(-0.0100128 0.00145792 0.00267785)
(-0.0162939 0.00170883 0.00262505)
(-0.0212369 0.00230822 0.00208381)
(-0.0234106 0.00318256 0.00099428)
(-0.0214363 0.00403664 -0.00055472)
(-0.0149193 0.00431133 -0.00195352)
(-0.00548246 0.00348926 -0.00200407)
(-0.000188312 0.00126546 -5.07643e-05)
(-7.88078e-05 0.000394851 0.000364047)
(-0.00166541 0.000309025 0.0010424)
(-0.00483852 0.000255624 0.00130672)
(-0.0080476 0.000345004 0.00135485)
(-0.0106718 0.000596931 0.00123536)
(-0.0119281 0.000979278 0.000891111)
(-0.0110328 0.00137203 0.000313748)
(-0.00771649 0.00154131 -0.000308084)
(-0.00274298 0.00125163 -0.000479075)
(-5.27756e-06 0.000363234 0.000162348)
(-0.00069533 -0.00113251 0.00316276)
(-0.00426406 -0.00134605 0.00621299)
(-0.0102088 -0.00134222 0.00718735)
(-0.0160599 -0.00138787 0.00705119)
(-0.0207768 -0.00156731 0.00601059)
(-0.0230812 -0.00188411 0.00391525)
(-0.0216689 -0.00222216 0.000846011)
(-0.0158881 -0.00227177 -0.00229844)
(-0.00674065 -0.00167393 -0.00353276)
(-0.000781428 -0.00018872 -0.00110757)
(-0.00196947 -0.00314645 0.00520469)
(-0.0104332 -0.00414958 0.0116139)
(-0.023748 -0.00429267 0.0135599)
(-0.0364595 -0.00445765 0.012635)
(-0.0461751 -0.00492695 0.00936061)
(-0.0503712 -0.00568484 0.00368544)
(-0.0466657 -0.00642767 -0.00373369)
(-0.0340962 -0.00638632 -0.010324)
(-0.0150895 -0.00480649 -0.0113363)
(-0.00222981 -0.00118978 -0.003532)
(-0.00278058 -0.00392616 0.00513372)
(-0.0143663 -0.00564621 0.0127548)
(-0.0322643 -0.005993 0.0149674)
(-0.0490108 -0.00622132 0.0133016)
(-0.0614161 -0.0067472 0.00834393)
(-0.0663132 -0.00754015 0.000160621)
(-0.0607736 -0.00819753 -0.0100079)
(-0.0438128 -0.00795578 -0.018254)
(-0.018986 -0.00611474 -0.0179646)
(-0.00261959 -0.00215421 -0.00546763)
(-0.00319461 -0.00302856 0.00455063)
(-0.0165317 -0.00454422 0.0124211)
(-0.0370512 -0.00487605 0.0146319)
(-0.0560446 -0.00505132 0.0124815)
(-0.069869 -0.00541961 0.00651666)
(-0.0749573 -0.0059583 -0.00311499)
(-0.0681153 -0.00632093 -0.0148076)
(-0.0485159 -0.00605437 -0.023742)
(-0.0204535 -0.00470998 -0.0222385)
(-0.00251984 -0.00187518 -0.00663278)
(-0.00335564 -0.00111964 0.00414722)
(-0.0174529 -0.00171013 0.0120103)
(-0.0391418 -0.00184283 0.0141865)
(-0.0591268 -0.0019052 0.0118177)
(-0.073557 -0.00203063 0.00540771)
(-0.0786724 -0.0022116 -0.00485826)
(-0.0711763 -0.00232132 -0.0171806)
(-0.0503567 -0.00221105 -0.0263373)
(-0.0208834 -0.0017319 -0.0241871)
(-0.00238266 -0.000725925 -0.00714047)
(-0.00335564 0.00111961 0.00414722)
(-0.0174528 0.00171008 0.0120103)
(-0.0391417 0.00184279 0.0141865)
(-0.0591268 0.00190518 0.0118177)
(-0.073557 0.00203061 0.00540771)
(-0.0786724 0.00221159 -0.00485826)
(-0.0711763 0.00232132 -0.0171806)
(-0.0503567 0.00221105 -0.0263373)
(-0.0208834 0.00173189 -0.0241871)
(-0.00238266 0.000725921 -0.00714047)
(-0.0031946 0.00302852 0.00455065)
(-0.0165317 0.00454417 0.0124211)
(-0.0370512 0.00487601 0.0146319)
(-0.0560446 0.00505129 0.0124815)
(-0.069869 0.0054196 0.00651666)
(-0.0749572 0.00595829 -0.00311499)
(-0.0681153 0.00632093 -0.0148076)
(-0.0485159 0.00605437 -0.023742)
(-0.0204535 0.00470997 -0.0222385)
(-0.00251984 0.00187517 -0.00663278)
(-0.00278056 0.0039261 0.00513377)
(-0.0143663 0.00564614 0.0127548)
(-0.0322642 0.00599295 0.0149674)
(-0.0490107 0.00622129 0.0133016)
(-0.061416 0.00674719 0.00834393)
(-0.0663132 0.00754015 0.000160622)
(-0.0607736 0.00819753 -0.0100079)
(-0.0438128 0.00795578 -0.018254)
(-0.018986 0.00611474 -0.0179646)
(-0.00261959 0.00215421 -0.00546763)
(-0.00196942 0.00314633 0.00520481)
(-0.0104332 0.0041495 0.0116139)
(-0.0237479 0.00429263 0.01356)
(-0.0364594 0.00445763 0.012635)
(-0.0461751 0.00492694 0.00936062)
(-0.0503712 0.00568484 0.00368544)
(-0.0466656 0.00642767 -0.00373369)
(-0.0340962 0.00638632 -0.010324)
(-0.0150895 0.00480649 -0.0113363)
(-0.00222981 0.00118978 -0.003532)
(-0.000695248 0.00113243 0.00316305)
(-0.00426395 0.001346 0.00621311)
(-0.0102088 0.0013422 0.00718739)
(-0.0160599 0.00138786 0.0070512)
(-0.0207767 0.00156731 0.0060106)
(-0.0230812 0.00188411 0.00391525)
(-0.0216689 0.00222216 0.000846011)
(-0.0158881 0.00227177 -0.00229844)
(-0.00674065 0.00167393 -0.00353276)
(-0.000781428 0.00018872 -0.00110757)
(-0.00115278 -0.00180146 0.00899583)
(-0.00612712 -0.00225048 0.0158967)
(-0.0139401 -0.00224291 0.0177821)
(-0.0216137 -0.00217572 0.0170939)
(-0.028131 -0.0022032 0.0143189)
(-0.0320292 -0.00239292 0.00914748)
(-0.0314172 -0.00265761 0.00167555)
(-0.0246745 -0.00269794 -0.00626413)
(-0.0120336 -0.00197665 -0.0102654)
(-0.00215977 1.74601e-06 -0.00536067)
(-0.0033376 -0.00480245 0.0148413)
(-0.0158281 -0.00645675 0.0289421)
(-0.0343568 -0.00655171 0.0325151)
(-0.0518797 -0.00635581 0.0296355)
(-0.0657465 -0.00634598 0.0214873)
(-0.0729103 -0.00665422 0.00801387)
(-0.0699312 -0.00703791 -0.00949001)
(-0.0542099 -0.00687815 -0.0257983)
(-0.0269764 -0.0051498 -0.0303027)
(-0.00526348 -0.000800457 -0.0134057)
(-0.00479395 -0.00575608 0.0158244)
(-0.0223054 -0.00829652 0.0324895)
(-0.0477909 -0.00854013 0.036334)
(-0.0712834 -0.00824453 0.0314976)
(-0.0891172 -0.00806153 0.0193588)
(-0.0973871 -0.00811261 0.000189523)
(-0.0920277 -0.00815771 -0.0234545)
(-0.0702717 -0.00770699 -0.0437782)
(-0.0343925 -0.00594502 -0.0461365)
(-0.0064481 -0.00176748 -0.0190609)
(-0.00557392 -0.00432793 0.0153877)
(-0.0259541 -0.00647623 0.0326367)
(-0.0554476 -0.00670886 0.0362974)
(-0.0822306 -0.00644169 0.0301746)
(-0.102049 -0.00619881 0.0156464)
(-0.110561 -0.00606035 -0.0067486)
(-0.103428 -0.00588604 -0.0336676)
(-0.0780427 -0.00545084 -0.0556474)
(-0.0374979 -0.00429277 -0.055885)
(-0.00668319 -0.00156356 -0.0223325)
(-0.00588807 -0.00157921 0.0149363)
(-0.0275174 -0.00240162 0.0322159)
(-0.0587907 -0.00249385 0.0357208)
(-0.0870027 -0.00238605 0.0290111)
(-0.107629 -0.00227576 0.0134327)
(-0.116129 -0.00219238 -0.0103363)
(-0.10809 -0.0020895 -0.038569)
(-0.0810627 -0.00191718 -0.0610845)
(-0.0385548 -0.00152875 -0.0602003)
(-0.00667003 -0.000606515 -0.0237318)
(-0.00588807 0.00157919 0.0149363)
(-0.0275174 0.00240158 0.0322159)
(-0.0587907 0.00249382 0.0357208)
(-0.0870027 0.00238603 0.0290111)
(-0.107629 0.00227575 0.0134327)
(-0.116129 0.00219237 -0.0103363)
(-0.10809 0.0020895 -0.038569)
(-0.0810627 0.00191717 -0.0610845)
(-0.0385548 0.00152874 -0.0602003)
(-0.00667003 0.000606512 -0.0237318)
(-0.00557391 0.00432791 0.0153877)
(-0.0259541 0.00647619 0.0326367)
(-0.0554476 0.00670882 0.0362974)
(-0.0822305 0.00644166 0.0301747)
(-0.102049 0.0061988 0.0156464)
(-0.110561 0.00606034 -0.00674859)
(-0.103428 0.00588603 -0.0336676)
(-0.0780427 0.00545084 -0.0556474)
(-0.0374979 0.00429276 -0.055885)
(-0.00668319 0.00156355 -0.0223325)
(-0.00479394 0.00575604 0.0158245)
(-0.0223054 0.00829648 0.0324896)
(-0.0477909 0.0085401 0.036334)
(-0.0712834 0.00824451 0.0314976)
(-0.0891172 0.00806152 0.0193588)
(-0.0973871 0.0081126 0.000189527)
(-0.0920277 0.0081577 -0.0234545)
(-0.0702717 0.00770699 -0.0437782)
(-0.0343925 0.00594502 -0.0461365)
(-0.0064481 0.00176748 -0.0190609)
(-0.00333758 0.0048024 0.0148414)
(-0.0158281 0.0064567 0.0289422)
(-0.0343568 0.00655168 0.0325152)
(-0.0518796 0.0063558 0.0296355)
(-0.0657465 0.00634598 0.0214873)
(-0.0729103 0.00665422 0.00801388)
(-0.0699312 0.00703791 -0.00949)
(-0.0542099 0.00687815 -0.0257983)
(-0.0269764 0.0051498 -0.0303027)
(-0.00526347 0.000800456 -0.0134057)
(-0.00115276 0.00180143 0.00899593)
(-0.00612708 0.00225046 0.0158968)
(-0.01394 0.0022429 0.0177822)
(-0.0216137 0.00217572 0.0170939)
(-0.028131 0.0022032 0.014319)
(-0.0320292 0.00239292 0.00914748)
(-0.0314172 0.00265761 0.00167555)
(-0.0246745 0.00269794 -0.00626413)
(-0.0120336 0.00197665 -0.0102654)
(-0.00215977 -1.7471e-06 -0.00536067)
(-0.00158771 -0.00246883 0.0168516)
(-0.00774495 -0.00308182 0.0284193)
(-0.0170284 -0.00295411 0.0311728)
(-0.0262843 -0.00261357 0.0297834)
(-0.0349085 -0.00229126 0.0251269)
(-0.0415255 -0.00215775 0.0164613)
(-0.0435234 -0.00226835 0.00335261)
(-0.0374771 -0.00249486 -0.0118146)
(-0.0214504 -0.00204684 -0.021338)
(-0.00523198 8.4784e-05 -0.0138928)
(-0.00460202 -0.0064496 0.0278235)
(-0.0206039 -0.00855367 0.0512827)
(-0.0435478 -0.00824595 0.056419)
(-0.0653898 -0.00715805 0.0511364)
(-0.0839203 -0.00596837 0.0374565)
(-0.0960105 -0.00508186 0.0147962)
(-0.0969301 -0.00469145 -0.015847)
(-0.0810494 -0.00481268 -0.0470093)
(-0.0461134 -0.00415496 -0.0600726)
(-0.0112287 -0.000395476 -0.0321218)
(-0.00663924 -0.00756473 0.0304468)
(-0.0293717 -0.0106566 0.0581727)
(-0.0613894 -0.010303 0.0635549)
(-0.090907 -0.00871066 0.0549574)
(-0.114589 -0.00677683 0.034799)
(-0.128317 -0.00498332 0.00297294)
(-0.126671 -0.00379366 -0.0378759)
(-0.103709 -0.00361314 -0.0765658)
(-0.0580162 -0.00355868 -0.0879185)
(-0.0136926 -0.00105115 -0.0435844)
(-0.00774335 -0.00559908 0.030497)
(-0.0343375 -0.00815524 0.0593069)
(-0.071562 -0.00788312 0.0643131)
(-0.1052 -0.00653508 0.0536043)
(-0.131237 -0.00482422 0.0297069)
(-0.145131 -0.00313116 -0.00705584)
(-0.141293 -0.00195768 -0.0528662)
(-0.114071 -0.00177358 -0.0945174)
(-0.0629836 -0.00206894 -0.103667)
(-0.0144905 -0.000899082 -0.0497097)
(-0.00818955 -0.00202549 0.030169)
(-0.0364553 -0.00299339 0.0591267)
(-0.0759627 -0.00289149 0.0638623)
(-0.111337 -0.00237181 0.0522173)
(-0.138251 -0.0017034 0.026744)
(-0.151994 -0.00103259 -0.0119973)
(-0.147004 -0.000556578 -0.0596669)
(-0.117924 -0.000488907 -0.102249)
(-0.0647238 -0.000654394 -0.110227)
(-0.0147076 -0.000340983 -0.0521927)
(-0.00818955 0.00202547 0.030169)
(-0.0364553 0.00299337 0.0591267)
(-0.0759627 0.00289146 0.0638623)
(-0.111337 0.00237179 0.0522173)
(-0.138251 0.00170338 0.026744)
(-0.151994 0.00103257 -0.0119973)
(-0.147004 0.00055657 -0.0596669)
(-0.117924 0.000488901 -0.102249)
(-0.0647238 0.000654389 -0.110227)
(-0.0147076 0.00034098 -0.0521927)
(-0.00774334 0.00559906 0.030497)
(-0.0343375 0.00815521 0.0593069)
(-0.071562 0.00788309 0.0643131)
(-0.1052 0.00653506 0.0536043)
(-0.131237 0.0048242 0.0297069)
(-0.145131 0.00313114 -0.00705583)
(-0.141293 0.00195767 -0.0528662)
(-0.114071 0.00177357 -0.0945174)
(-0.0629836 0.00206893 -0.103667)
(-0.0144905 0.00089908 -0.0497097)
(-0.00663923 0.00756471 0.0304469)
(-0.0293716 0.0106565 0.0581728)
(-0.0613894 0.0103029 0.0635549)
(-0.090907 0.00871064 0.0549574)
(-0.114589 0.00677682 0.034799)
(-0.128317 0.00498332 0.00297295)
(-0.126671 0.00379365 -0.0378758)
(-0.103709 0.00361314 -0.0765658)
(-0.0580162 0.00355868 -0.0879185)
(-0.0136926 0.00105115 -0.0435843)
(-0.00460201 0.00644958 0.0278235)
(-0.0206039 0.00855364 0.0512827)
(-0.0435478 0.00824593 0.056419)
(-0.0653898 0.00715804 0.0511364)
(-0.0839203 0.00596837 0.0374565)
(-0.0960105 0.00508185 0.0147962)
(-0.0969301 0.00469145 -0.015847)
(-0.0810494 0.00481268 -0.0470093)
(-0.0461134 0.00415496 -0.0600726)
(-0.0112287 0.000395475 -0.0321218)
(-0.0015877 0.00246882 0.0168517)
(-0.00774493 0.00308181 0.0284193)
(-0.0170284 0.0029541 0.0311728)
(-0.0262843 0.00261356 0.0297834)
(-0.0349085 0.00229125 0.0251269)
(-0.0415255 0.00215775 0.0164613)
(-0.0435234 0.00226835 0.00335262)
(-0.0374771 0.00249486 -0.0118146)
(-0.0214504 0.00204684 -0.021338)
(-0.00523197 -8.47846e-05 -0.0138928)
(-0.00226415 -0.00312252 0.0269271)
(-0.00958 -0.00377778 0.0435252)
(-0.0197395 -0.00329059 0.046698)
(-0.0299767 -0.00231097 0.0442798)
(-0.040667 -0.00116373 0.0376201)
(-0.0510914 -0.000201232 0.0251679)
(-0.0580832 0.000168214 0.00518729)
(-0.0555696 -0.000422027 -0.0202457)
(-0.0376481 -0.00109777 -0.0397167)
(-0.0116018 -4.90782e-05 -0.0307443)
(-0.00612694 -0.0080126 0.0442621)
(-0.0253403 -0.0102391 0.0781492)
(-0.0515144 -0.0088714 0.0844078)
(-0.076445 -0.005853 0.0763693)
(-0.0992637 -0.00210896 0.0570263)
(-0.117591 0.00141584 0.0245539)
(-0.125718 0.00342503 -0.0218176)
(-0.114166 0.00243528 -0.0739561)
(-0.0751836 -0.000326156 -0.104449)
(-0.0223675 -0.000251402 -0.0667074)
(-0.00864137 -0.00922101 0.0489995)
(-0.035959 -0.0124565 0.089212)
(-0.0728246 -0.0106796 0.0958672)
(-0.106527 -0.00647884 0.0834231)
(-0.135007 -0.00110934 0.0555128)
(-0.154897 0.00413329 0.0108298)
(-0.159993 0.00729617 -0.049693)
(-0.140892 0.00617612 -0.113772)
(-0.0910631 0.00181486 -0.145489)
(-0.0265403 -0.000346431 -0.0867564)
(-0.00997213 -0.00673187 0.0498024)
(-0.0418702 -0.00937908 0.0917829)
(-0.0847415 -0.00797139 0.0980257)
(-0.122901 -0.00455128 0.082939)
(-0.153537 -0.000149735 0.0504486)
(-0.172875 0.00414295 -0.000182062)
(-0.175035 0.00664927 -0.066798)
(-0.151546 0.00563516 -0.135265)
(-0.0971207 0.00199518 -0.166164)
(-0.028078 -0.000204406 -0.0964474)
(-0.0104959 -0.00241695 0.0497341)
(-0.0443355 -0.00341307 0.0920657)
(-0.0897687 -0.00288664 0.09801)
(-0.129697 -0.00159585 0.0818099)
(-0.160969 6.57278e-05 0.0475208)
(-0.179719 0.00167798 -0.00528325)
(-0.180395 0.00258941 -0.0739657)
(-0.155149 0.00217722 -0.143782)
(-0.0992188 0.00080677 -0.174152)
(-0.0286276 -5.93845e-05 -0.100149)
(-0.0104959 0.00241694 0.0497341)
(-0.0443355 0.00341305 0.0920657)
(-0.0897687 0.00288662 0.09801)
(-0.129697 0.00159583 0.0818099)
(-0.160969 -6.57448e-05 0.0475208)
(-0.179719 -0.001678 -0.00528325)
(-0.180395 -0.00258942 -0.0739657)
(-0.155149 -0.00217722 -0.143782)
(-0.0992188 -0.000806773 -0.174152)
(-0.0286276 5.93823e-05 -0.100149)
(-0.00997213 0.00673186 0.0498024)
(-0.0418702 0.00937906 0.0917829)
(-0.0847414 0.00797137 0.0980257)
(-0.122901 0.00455126 0.082939)
(-0.153537 0.00014972 0.0504486)
(-0.172875 -0.00414296 -0.000182056)
(-0.175035 -0.00664928 -0.0667979)
(-0.151546 -0.00563517 -0.135265)
(-0.0971207 -0.00199518 -0.166164)
(-0.028078 0.000204403 -0.0964474)
(-0.00864137 0.00922099 0.0489995)
(-0.035959 0.0124565 0.089212)
(-0.0728246 0.0106795 0.0958672)
(-0.106527 0.00647883 0.0834231)
(-0.135007 0.00110934 0.0555128)
(-0.154897 -0.0041333 0.0108298)
(-0.159993 -0.00729617 -0.049693)
(-0.140892 -0.00617612 -0.113772)
(-0.0910631 -0.00181486 -0.145489)
(-0.0265403 0.000346429 -0.0867564)
(-0.00612693 0.00801259 0.0442622)
(-0.0253403 0.0102391 0.0781493)
(-0.0515144 0.00887139 0.0844078)
(-0.076445 0.00585299 0.0763694)
(-0.0992637 0.00210896 0.0570263)
(-0.117591 -0.00141584 0.024554)
(-0.125718 -0.00342503 -0.0218176)
(-0.114166 -0.00243528 -0.0739561)
(-0.0751836 0.000326155 -0.104449)
(-0.0223675 0.000251401 -0.0667073)
(-0.00226415 0.00312251 0.0269271)
(-0.00957999 0.00377777 0.0435252)
(-0.0197395 0.00329058 0.046698)
(-0.0299767 0.00231097 0.0442798)
(-0.040667 0.00116373 0.0376201)
(-0.0510914 0.000201232 0.0251679)
(-0.0580831 -0.000168214 0.0051873)
(-0.0555696 0.000422027 -0.0202457)
(-0.0376481 0.00109777 -0.0397167)
(-0.0116018 4.90781e-05 -0.0307443)
(-0.00374737 -0.00377514 0.0397959)
(-0.0124457 -0.00425419 0.0604384)
(-0.0221112 -0.00300908 0.0624999)
(-0.0315881 -0.00082353 0.0580387)
(-0.0430745 0.00189114 0.0489824)
(-0.0574199 0.00457885 0.0327139)
(-0.0716191 0.0061588 0.00538228)
(-0.076735 0.00517968 -0.032992)
(-0.061141 0.00204254 -0.0680469)
(-0.0223401 -0.000372809 -0.0618429)
(-0.00857401 -0.00945418 0.0645666)
(-0.0306654 -0.0112714 0.108215)
(-0.0572858 -0.00786869 0.113932)
(-0.0815441 -0.00151765 0.102316)
(-0.105141 0.00650804 0.0775895)
(-0.127952 0.0144562 0.036202)
(-0.144766 0.0191419 -0.0259525)
(-0.142946 0.0165265 -0.103535)
(-0.108798 0.00714155 -0.162892)
(-0.038122 -0.000896634 -0.125885)
(-0.0113561 -0.0106256 0.0715954)
(-0.0422109 -0.0134297 0.12394)
(-0.0800612 -0.00916699 0.130626)
(-0.112767 -0.000864683 0.114265)
(-0.140827 0.00959151 0.0800751)
(-0.163341 0.0195845 0.0250305)
(-0.175376 0.0248584 -0.0536472)
(-0.165611 0.0208942 -0.147318)
(-0.12343 0.00908076 -0.213797)
(-0.0428738 -0.000583142 -0.157004)
(-0.0127226 -0.00763595 0.0732015)
(-0.0483345 -0.00996576 0.128165)
(-0.0922237 -0.00668879 0.134735)
(-0.128793 -0.000200175 0.115813)
(-0.157773 0.0079051 0.0771533)
(-0.178127 0.0154006 0.0163722)
(-0.186011 0.0188947 -0.0684938)
(-0.172056 0.0153602 -0.167771)
(-0.127824 0.00652908 -0.236347)
(-0.0446487 -0.000225553 -0.170659)
(-0.0132235 -0.00271873 0.0734187)
(-0.0507674 -0.00359854 0.129006)
(-0.0971112 -0.00239399 0.135408)
(-0.135047 3.40537e-06 0.115492)
(-0.16399 0.00297856 0.0752528)
(-0.183014 0.00567728 0.0126274)
(-0.189029 0.00683392 -0.0741144)
(-0.173721 0.00544609 -0.175179)
(-0.129346 0.00228468 -0.244525)
(-0.0454074 -3.9659e-05 -0.175694)
(-0.0132235 0.00271872 0.0734187)
(-0.0507674 0.00359852 0.129006)
(-0.0971112 0.00239397 0.135408)
(-0.135047 -3.42506e-06 0.115492)
(-0.16399 -0.00297857 0.0752528)
(-0.183014 -0.00567729 0.0126274)
(-0.189029 -0.00683393 -0.0741144)
(-0.173721 -0.00544609 -0.175179)
(-0.129346 -0.00228468 -0.244525)
(-0.0454074 3.96583e-05 -0.175694)
(-0.0127226 0.00763594 0.0732015)
(-0.0483345 0.00996574 0.128165)
(-0.0922237 0.00668877 0.134735)
(-0.128793 0.000200158 0.115813)
(-0.157773 -0.00790511 0.0771533)
(-0.178127 -0.0154006 0.0163722)
(-0.186011 -0.0188947 -0.0684938)
(-0.172056 -0.0153602 -0.167771)
(-0.127824 -0.00652908 -0.236347)
(-0.0446487 0.000225552 -0.170659)
(-0.0113561 0.0106256 0.0715954)
(-0.0422109 0.0134297 0.12394)
(-0.0800612 0.00916697 0.130626)
(-0.112767 0.000864672 0.114265)
(-0.140827 -0.00959151 0.0800751)
(-0.163341 -0.0195845 0.0250305)
(-0.175376 -0.0248584 -0.0536471)
(-0.165611 -0.0208942 -0.147318)
(-0.12343 -0.00908076 -0.213797)
(-0.0428738 0.000583141 -0.157004)
(-0.008574 0.00945417 0.0645666)
(-0.0306654 0.0112714 0.108215)
(-0.0572858 0.00786869 0.113932)
(-0.0815441 0.00151765 0.102316)
(-0.105141 -0.00650804 0.0775895)
(-0.127952 -0.0144562 0.036202)
(-0.144766 -0.0191419 -0.0259525)
(-0.142946 -0.0165265 -0.103535)
(-0.108798 -0.00714155 -0.162892)
(-0.038122 0.000896634 -0.125885)
(-0.00374737 0.00377514 0.039796)
(-0.0124457 0.00425419 0.0604384)
(-0.0221112 0.00300908 0.0624999)
(-0.0315881 0.000823528 0.0580387)
(-0.0430745 -0.00189114 0.0489824)
(-0.0574198 -0.00457885 0.0327139)
(-0.0716191 -0.0061588 0.00538229)
(-0.076735 -0.00517968 -0.032992)
(-0.061141 -0.00204254 -0.0680469)
(-0.0223401 0.000372809 -0.0618429)
(-0.0075457 -0.0046475 0.057654)
(-0.0183892 -0.00473673 0.0777574)
(-0.0241482 -0.00229738 0.0751604)
(-0.0288514 0.00159744 0.0664474)
(-0.0373795 0.00642964 0.0542328)
(-0.0531204 0.0115068 0.0347474)
(-0.0748775 0.0150346 0.00155667)
(-0.0916961 0.0138866 -0.0503468)
(-0.0866961 0.00713411 -0.106263)
(-0.0358013 -0.00121194 -0.114458)
(-0.0138267 -0.0111277 0.0907225)
(-0.0386279 -0.0120375 0.138873)
(-0.0594492 -0.0057157 0.13963)
(-0.0748115 0.00483859 0.122478)
(-0.0904301 0.0178959 0.0931619)
(-0.110059 0.0309813 0.0465491)
(-0.131817 0.0389713 -0.0256638)
(-0.142557 0.0344333 -0.126916)
(-0.127481 0.0160384 -0.225056)
(-0.0498334 -0.00379357 -0.215573)
(-0.01662 -0.012021 0.0995595)
(-0.04965 -0.0139587 0.158858)
(-0.0805775 -0.00652303 0.161612)
(-0.101977 0.00634946 0.140554)
(-0.118503 0.0219538 0.102725)
(-0.133625 0.0364894 0.0434854)
(-0.146935 0.0435714 -0.0446433)
(-0.148402 0.0360215 -0.164156)
(-0.130574 0.0150743 -0.276979)
(-0.0510497 -0.00349806 -0.25681)
(-0.017775 -0.00843765 0.101559)
(-0.0549266 -0.01018 0.164337)
(-0.0909313 -0.00469266 0.167666)
(-0.114657 0.0049489 0.144926)
(-0.130099 0.0164477 0.103778)
(-0.140933 0.0266058 0.040087)
(-0.148608 0.0306015 -0.0532009)
(-0.146005 0.0240508 -0.178983)
(-0.1297 0.00937602 -0.297434)
(-0.0516938 -0.00208587 -0.273495)
(-0.0181309 -0.00296943 0.101871)
(-0.0568257 -0.0036446 0.165525)
(-0.094728 -0.00166844 0.168981)
(-0.119081 0.0018187 0.14569)
(-0.133656 0.00593509 0.10356)
(-0.142424 0.00946618 0.0386567)
(-0.147948 0.0106688 -0.0560725)
(-0.144475 0.00815923 -0.184037)
(-0.129694 0.00307626 -0.304727)
(-0.052303 -0.000645979 -0.27963)
(-0.0181309 0.00296942 0.101871)
(-0.0568257 0.00364458 0.165525)
(-0.094728 0.00166842 0.168981)
(-0.119081 -0.00181871 0.14569)
(-0.133656 -0.0059351 0.10356)
(-0.142424 -0.00946619 0.0386567)
(-0.147948 -0.0106688 -0.0560725)
(-0.144475 -0.00815923 -0.184037)
(-0.129694 -0.00307626 -0.304727)
(-0.052303 0.00064598 -0.27963)
(-0.017775 0.00843765 0.101559)
(-0.0549266 0.01018 0.164337)
(-0.0909313 0.00469264 0.167666)
(-0.114657 -0.00494892 0.144926)
(-0.130099 -0.0164477 0.103778)
(-0.140933 -0.0266058 0.040087)
(-0.148608 -0.0306015 -0.0532009)
(-0.146005 -0.0240508 -0.178983)
(-0.1297 -0.00937602 -0.297434)
(-0.0516938 0.00208587 -0.273495)
(-0.01662 0.012021 0.0995595)
(-0.04965 0.0139587 0.158858)
(-0.0805775 0.00652302 0.161612)
(-0.101977 -0.00634947 0.140554)
(-0.118503 -0.0219538 0.102725)
(-0.133625 -0.0364894 0.0434854)
(-0.146935 -0.0435714 -0.0446433)
(-0.148402 -0.0360215 -0.164156)
(-0.130574 -0.0150743 -0.276979)
(-0.0510497 0.00349806 -0.25681)
(-0.0138267 0.0111277 0.0907225)
(-0.0386279 0.0120375 0.138873)
(-0.0594492 0.00571569 0.139631)
(-0.0748115 -0.0048386 0.122478)
(-0.0904301 -0.0178959 0.0931619)
(-0.110059 -0.0309814 0.0465491)
(-0.131817 -0.0389713 -0.0256638)
(-0.142557 -0.0344333 -0.126916)
(-0.127481 -0.0160384 -0.225056)
(-0.0498334 0.00379357 -0.215573)
(-0.0075457 0.0046475 0.057654)
(-0.0183892 0.00473673 0.0777574)
(-0.0241482 0.00229738 0.0751604)
(-0.0288514 -0.00159745 0.0664474)
(-0.0373795 -0.00642964 0.0542328)
(-0.0531204 -0.0115068 0.0347474)
(-0.0748775 -0.0150346 0.00155668)
(-0.0916961 -0.0138866 -0.0503468)
(-0.0866961 -0.00713411 -0.106263)
(-0.0358013 0.00121194 -0.114458)
(-0.0168572 -0.00642609 0.0815601)
(-0.0302073 -0.00634914 0.0915044)
(-0.021925 -0.0027253 0.0796473)
(-0.0135172 0.00284574 0.0640484)
(-0.0116348 0.00951154 0.0482454)
(-0.0218566 0.0167641 0.0273283)
(-0.047087 0.0226317 -0.00815756)
(-0.0766186 0.0217811 -0.0700946)
(-0.0962699 0.0106906 -0.14916)
(-0.0417158 -0.00558758 -0.193326)
(-0.0266876 -0.0143378 0.12115)
(-0.0543646 -0.0148876 0.162975)
(-0.0531102 -0.00618334 0.153143)
(-0.0435862 0.00750631 0.127524)
(-0.0359526 0.0238357 0.0951067)
(-0.037255 0.0405465 0.0500402)
(-0.0528334 0.0523125 -0.020144)
(-0.0725982 0.047615 -0.132487)
(-0.0971728 0.0203253 -0.269552)
(-0.0363891 -0.0131456 -0.322852)
(-0.029781 -0.0145499 0.130197)
(-0.0646486 -0.0163859 0.185948)
(-0.0704628 -0.00692599 0.179635)
(-0.0622722 0.00835806 0.151549)
(-0.0502929 0.0263034 0.112866)
(-0.0413879 0.043201 0.0582001)
(-0.0436204 0.0526289 -0.0241591)
(-0.0511232 0.0440697 -0.153306)
(-0.0787393 0.0156518 -0.310719)
(-0.0284869 -0.0111819 -0.364265)
(-0.0306974 -0.00982176 0.131896)
(-0.0685883 -0.0115575 0.192017)
(-0.0777865 -0.00490881 0.187314)
(-0.0700171 0.00595361 0.158851)
(-0.0553448 0.0185323 0.118395)
(-0.0406853 0.0297506 0.0608131)
(-0.0362687 0.0348812 -0.0252741)
(-0.0392974 0.0275879 -0.160334)
(-0.0713627 0.00889201 -0.325526)
(-0.0269329 -0.00644575 -0.379677)
(-0.0308715 -0.00339011 0.132065)
(-0.0696895 -0.00407086 0.193239)
(-0.0799694 -0.00173195 0.189063)
(-0.0721382 0.00210164 0.160643)
(-0.056239 0.00649516 0.119858)
(-0.0393448 0.0103026 0.0615957)
(-0.0328219 0.0118408 -0.0255949)
(-0.0352166 0.00910263 -0.162879)
(-0.0699702 0.00282445 -0.331021)
(-0.0272261 -0.00198662 -0.385386)
(-0.0308715 0.0033901 0.132065)
(-0.0696895 0.00407085 0.193239)
(-0.0799694 0.00173194 0.189063)
(-0.0721382 -0.00210166 0.160643)
(-0.056239 -0.00649518 0.119858)
(-0.0393448 -0.0103026 0.0615957)
(-0.0328219 -0.0118408 -0.0255949)
(-0.0352166 -0.00910263 -0.162879)
(-0.0699702 -0.00282445 -0.331021)
(-0.0272261 0.00198663 -0.385386)
(-0.0306974 0.00982176 0.131896)
(-0.0685883 0.0115575 0.192017)
(-0.0777865 0.0049088 0.187314)
(-0.0700171 -0.00595363 0.158851)
(-0.0553448 -0.0185323 0.118395)
(-0.0406853 -0.0297506 0.0608131)
(-0.0362687 -0.0348812 -0.0252741)
(-0.0392975 -0.0275879 -0.160334)
(-0.0713627 -0.00889201 -0.325526)
(-0.0269329 0.00644575 -0.379677)
(-0.029781 0.0145499 0.130197)
(-0.0646486 0.0163859 0.185948)
(-0.0704628 0.00692598 0.179635)
(-0.0622722 -0.00835807 0.151549)
(-0.0502929 -0.0263034 0.112866)
(-0.0413879 -0.043201 0.0582001)
(-0.0436204 -0.0526289 -0.0241591)
(-0.0511232 -0.0440697 -0.153306)
(-0.0787393 -0.0156518 -0.310719)
(-0.0284869 0.0111819 -0.364265)
(-0.0266876 0.0143378 0.12115)
(-0.0543646 0.0148876 0.162975)
(-0.0531102 0.00618333 0.153143)
(-0.0435862 -0.00750631 0.127524)
(-0.0359526 -0.0238357 0.0951067)
(-0.037255 -0.0405465 0.0500402)
(-0.0528334 -0.0523125 -0.020144)
(-0.0725982 -0.047615 -0.132487)
(-0.0971728 -0.0203253 -0.269552)
(-0.0363891 0.0131456 -0.322852)
(-0.0168572 0.00642609 0.0815601)
(-0.0302073 0.00634914 0.0915044)
(-0.021925 0.0027253 0.0796473)
(-0.0135172 -0.00284574 0.0640484)
(-0.0116348 -0.00951154 0.0482454)
(-0.0218566 -0.0167641 0.0273283)
(-0.047087 -0.0226317 -0.00815756)
(-0.0766186 -0.0217811 -0.0700946)
(-0.0962699 -0.0106906 -0.14916)
(-0.0417158 0.00558758 -0.193326)
(-0.0239661 -0.0111329 0.150774)
(-0.021392 -0.0114717 0.0984053)
(0.0252846 -0.00698931 0.063031)
(0.0584564 -0.0006568 0.0419459)
(0.0791566 0.0064454 0.0259877)
(0.0822805 0.0142303 0.00863112)
(0.0611683 0.0216449 -0.0196397)
(0.0245888 0.0212471 -0.0769959)
(-0.0424414 0.00596494 -0.172221)
(-0.00692715 -0.0172403 -0.258511)
(-0.0430127 -0.0225505 0.210049)
(-0.0442402 -0.0248445 0.168432)
(0.0178884 -0.0159033 0.126015)
(0.0720356 -0.00243071 0.0943685)
(0.116078 0.013236 0.0658869)
(0.144592 0.0297971 0.0332423)
(0.143965 0.0447476 -0.0154361)
(0.126216 0.0437441 -0.105731)
(0.0372022 0.0119606 -0.254678)
(0.0427376 -0.0305903 -0.368283)
(-0.0483847 -0.0200611 0.219953)
(-0.0541506 -0.0246189 0.187759)
(0.0068191 -0.0166999 0.148128)
(0.0652932 -0.0035576 0.115502)
(0.117953 0.012171 0.0835915)
(0.160104 0.0280057 0.0452981)
(0.173532 0.040376 -0.0103685)
(0.17027 0.0369058 -0.109532)
(0.0769174 0.00785538 -0.274214)
(0.0618356 -0.0213888 -0.394267)
(-0.0492984 -0.0125979 0.220753)
(-0.0566865 -0.0163199 0.191458)
(0.00295421 -0.0113033 0.153604)
(0.0623265 -0.00265053 0.121588)
(0.117719 0.00771599 0.0892002)
(0.164843 0.0178984 0.0492524)
(0.18308 0.0250867 -0.00892189)
(0.184045 0.0220168 -0.111213)
(0.0866311 0.00482645 -0.281204)
(0.0648187 -0.0110272 -0.403152)
(-0.0492417 -0.00420203 0.220432)
(-0.0568619 -0.00557968 0.191688)
(0.00247523 -0.00389061 0.154432)
(0.0621901 -0.000943734 0.122809)
(0.118406 0.00257485 0.0905191)
(0.166937 0.00598655 0.050238)
(0.186259 0.00827399 -0.00877694)
(0.187546 0.00715193 -0.112365)
(0.0876373 0.00165106 -0.284167)
(0.0644303 -0.00323466 -0.40641)
(-0.0492417 0.00420202 0.220432)
(-0.0568619 0.00557967 0.191688)