/*--------------------------------*- C++ -*----------------------------------*\
  =========                 |
  \\      /  F ield         | OpenFOAM: The Open Source CFD Toolbox
   \\    /   O peration     | Website:  https://openfoam.org
    \\  /    A nd           | Version:  9
     \\/     M anipulation  |
\*---------------------------------------------------------------------------*/
FoamFile
{
    format      ascii;
    class       volVectorField;
    location    "0.59";
    object      U;
}
// * * * * * * * * * * * * * * * * * * * * * * * * * * * * * * * * * * * * * //

dimensions      [0 1 -1 0 0 0 0];

internalField   nonuniform List<vector> 
1000
(
(1.44844e-06 -0.000481036 0.000346112)
(-0.0014684 -0.000434978 0.00106569)
(-0.00463937 -0.000391228 0.00140107)
(-0.00798731 -0.00049953 0.00153478)
(-0.0108352 -0.000799407 0.00148806)
(-0.0122609 -0.00125349 0.00117435)
(-0.0113512 -0.00170702 0.000578891)
(-0.00784205 -0.00187887 -7.76172e-05)
(-0.00264338 -0.0015017 -0.000269551)
(9.27621e-05 -0.00044833 0.000334788)
(-0.000190535 -0.00168537 0.000596407)
(-0.00348629 -0.00204704 0.00225506)
(-0.010104 -0.00212233 0.00296959)
(-0.0168649 -0.00245626 0.00304365)
(-0.0223333 -0.00320401 0.00255694)
(-0.024791 -0.00426708 0.00141221)
(-0.0226362 -0.0052466 -0.00026914)
(-0.0155323 -0.00546246 -0.00177681)
(-0.00545651 -0.0043402 -0.00180704)
(-3.88269e-05 -0.00160135 0.000182545)
(-0.000375338 -0.00250253 0.000306989)
(-0.00494588 -0.00348749 0.00231329)
(-0.0138048 -0.00379186 0.00316418)
(-0.0226714 -0.00424474 0.00310526)
(-0.0296166 -0.00509289 0.00221289)
(-0.0324313 -0.00622054 0.000408874)
(-0.0291258 -0.00711636 -0.0020465)
(-0.0194607 -0.00709531 -0.00394839)
(-0.00630201 -0.00561854 -0.00345799)
(0.000297436 -0.00238629 -9.33195e-05)
(-0.000499238 -0.00210919 -7.72e-05)
(-0.00590399 -0.00307857 0.00198776)
(-0.0162058 -0.00339341 0.00286192)
(-0.0263904 -0.00375964 0.0026876)
(-0.0341975 -0.00438723 0.00151017)
(-0.0370499 -0.00518394 -0.000732251)
(-0.0327676 -0.0057378 -0.0036433)
(-0.0213398 -0.00559942 -0.00567214)
(-0.0062764 -0.00443104 -0.00465673)
(0.000749544 -0.00199552 -0.000281959)
(-0.000563185 -0.0008123 -0.000314504)
(-0.00638453 -0.00120671 0.00173727)
(-0.0173982 -0.00133659 0.0026069)
(-0.0282198 -0.00147371 0.00236927)
(-0.0364157 -0.00169781 0.00104623)
(-0.039232 -0.00197329 -0.00141514)
(-0.0344045 -0.00215771 -0.00452015)
(-0.0220699 -0.00208696 -0.00656519)
(-0.00610261 -0.00165249 -0.00524534)
(0.00103493 -0.000763376 -0.00036703)
(-0.000563183 0.000812279 -0.000314503)
(-0.00638453 0.00120669 0.00173727)
(-0.0173982 0.00133657 0.0026069)
(-0.0282198 0.0014737 0.00236927)
(-0.0364157 0.0016978 0.00104623)
(-0.039232 0.00197329 -0.00141513)
(-0.0344045 0.00215771 -0.00452015)
(-0.0220699 0.00208695 -0.00656519)
(-0.00610261 0.00165249 -0.00524534)
(0.00103493 0.000763374 -0.00036703)
(-0.000499233 0.00210916 -7.71957e-05)
(-0.00590398 0.00307854 0.00198777)
(-0.0162058 0.00339339 0.00286192)
(-0.0263904 0.00375963 0.0026876)
(-0.0341975 0.00438722 0.00151017)
(-0.0370499 0.00518394 -0.000732251)
(-0.0327676 0.00573779 -0.0036433)
(-0.0213398 0.00559942 -0.00567214)
(-0.0062764 0.00443104 -0.00465673)
(0.000749544 0.00199552 -0.000281959)
(-0.000375324 0.00250247 0.000307002)
(-0.00494586 0.00348745 0.0023133)
(-0.0138047 0.00379184 0.00316419)
(-0.0226714 0.00424473 0.00310526)
(-0.0296166 0.00509289 0.0022129)
(-0.0324313 0.00622054 0.000408875)
(-0.0291258 0.00711636 -0.0020465)
(-0.0194607 0.00709531 -0.00394839)
(-0.00630201 0.00561854 -0.00345799)
(0.000297436 0.00238629 -9.33197e-05)
(-0.000190498 0.00168522 0.000596443)
(-0.00348624 0.00204698 0.00225508)
(-0.0101039 0.00212231 0.0029696)
(-0.0168648 0.00245624 0.00304365)
(-0.0223333 0.003204 0.00255694)
(-0.024791 0.00426708 0.00141221)
(-0.0226362 0.0052466 -0.00026914)
(-0.0155323 0.00546246 -0.00177681)
(-0.00545651 0.0043402 -0.00180704)
(-3.88265e-05 0.00160135 0.000182544)
(1.55623e-06 0.000480925 0.000346221)
(-0.00146825 0.000434939 0.00106573)
(-0.00463931 0.000391216 0.00140108)
(-0.00798729 0.000499525 0.00153478)
(-0.0108352 0.000799405 0.00148806)
(-0.0122609 0.00125349 0.00117435)
(-0.0113512 0.00170701 0.000578891)
(-0.00784205 0.00187887 -7.76172e-05)
(-0.00264338 0.0015017 -0.000269552)
(9.27622e-05 0.000448329 0.000334788)
(-0.000644722 -0.0013747 0.0033828)
(-0.00414706 -0.00174551 0.00675976)
(-0.0101724 -0.00178453 0.00804364)
(-0.0163202 -0.00183482 0.0081905)
(-0.0214455 -0.0020271 0.00731541)
(-0.0240406 -0.00237459 0.00518715)
(-0.0225921 -0.00273087 0.00190436)
(-0.0164422 -0.00275378 -0.00150479)
(-0.00678698 -0.00202299 -0.00289447)
(-0.000674952 -0.000295854 -0.000613245)
(-0.00195956 -0.00402369 0.00563149)
(-0.0107342 -0.00561037 0.0128007)
(-0.0248836 -0.00591308 0.0153185)
(-0.0386934 -0.00609494 0.0147293)
(-0.0494093 -0.00658331 0.0113963)
(-0.0540226 -0.00737886 0.00520219)
(-0.0498619 -0.00810243 -0.00298425)
(-0.0360898 -0.00788987 -0.0101368)
(-0.0156458 -0.00589191 -0.0111095)
(-0.00215857 -0.00157556 -0.0030063)
(-0.00296654 -0.00530329 0.0054627)
(-0.015591 -0.00794499 0.0139695)
(-0.0353713 -0.00854152 0.0167564)
(-0.0540704 -0.00878961 0.0152052)
(-0.0678667 -0.0093065 0.00970182)
(-0.0729744 -0.0100754 0.000350453)
(-0.0662483 -0.0105971 -0.0110975)
(-0.0470905 -0.0100323 -0.0199375)
(-0.01992 -0.00762308 -0.0189779)
(-0.00253789 -0.00275291 -0.00521854)
(-0.00360316 -0.00425694 0.00465848)
(-0.0187405 -0.00658845 0.0133828)
(-0.0421524 -0.00713731 0.0160494)
(-0.0638216 -0.00732331 0.0136942)
(-0.0792525 -0.00766065 0.00665507)
(-0.0841898 -0.00813559 -0.00472634)
(-0.075376 -0.00832315 -0.0180442)
(-0.0526929 -0.00775737 -0.027413)
(-0.0215753 -0.0059583 -0.0245087)
(-0.00238528 -0.00240108 -0.00667655)
(-0.00390685 -0.00160685 0.00409183)
(-0.0202811 -0.00251946 0.0127558)
(-0.0454744 -0.00273668 0.015286)
(-0.068543 -0.00280114 0.0124897)
(-0.0846596 -0.00290856 0.00467049)
(-0.0893555 -0.00305496 -0.00767503)
(-0.0793923 -0.00308699 -0.0217748)
(-0.0549749 -0.00285755 -0.0312098)
(-0.0220669 -0.00220849 -0.0271945)
(-0.00220369 -0.000932219 -0.00735338)
(-0.00390685 0.00160683 0.00409183)
(-0.020281 0.00251944 0.0127558)
(-0.0454744 0.00273666 0.015286)
(-0.068543 0.00280113 0.0124897)
(-0.0846595 0.00290855 0.00467049)
(-0.0893555 0.00305496 -0.00767503)
(-0.0793923 0.00308699 -0.0217748)
(-0.0549749 0.00285755 -0.0312098)
(-0.0220669 0.00220849 -0.0271945)
(-0.00220369 0.000932218 -0.00735338)
(-0.00360315 0.00425691 0.00465849)
(-0.0187405 0.00658843 0.0133828)
(-0.0421523 0.00713729 0.0160494)
(-0.0638216 0.00732329 0.0136942)
(-0.0792525 0.00766064 0.00665507)
(-0.0841898 0.00813559 -0.00472634)
(-0.075376 0.00832314 -0.0180442)
(-0.0526929 0.00775737 -0.027413)
(-0.0215753 0.00595829 -0.0245087)
(-0.00238528 0.00240107 -0.00667655)
(-0.00296653 0.00530325 0.00546273)
(-0.015591 0.00794496 0.0139695)
(-0.0353713 0.0085415 0.0167564)
(-0.0540704 0.0087896 0.0152052)
(-0.0678667 0.0093065 0.00970183)
(-0.0729744 0.0100754 0.000350455)
(-0.0662483 0.0105971 -0.0110975)
(-0.0470905 0.0100323 -0.0199375)
(-0.01992 0.00762307 -0.0189779)
(-0.00253789 0.00275291 -0.00521854)
(-0.00195953 0.00402364 0.00563155)
(-0.0107342 0.00561033 0.0128008)
(-0.0248836 0.00591306 0.0153185)
(-0.0386934 0.00609492 0.0147293)
(-0.0494093 0.00658331 0.0113963)
(-0.0540226 0.00737886 0.00520219)
(-0.0498619 0.00810243 -0.00298424)
(-0.0360898 0.00788986 -0.0101368)
(-0.0156458 0.00589191 -0.0111095)
(-0.00215857 0.00157555 -0.0030063)
(-0.000644686 0.00137466 0.00338295)
(-0.004147 0.00174549 0.00675982)
(-0.0101724 0.00178452 0.00804366)
(-0.0163202 0.00183481 0.00819051)
(-0.0214455 0.00202709 0.00731541)
(-0.0240406 0.00237458 0.00518716)
(-0.0225921 0.00273087 0.00190436)
(-0.0164422 0.00275378 -0.00150478)
(-0.00678698 0.00202299 -0.00289447)
(-0.000674952 0.000295853 -0.000613244)
(-0.00111502 -0.00215453 0.00984011)
(-0.00602334 -0.00282771 0.0175946)
(-0.0139086 -0.00283352 0.0200897)
(-0.0219247 -0.00267536 0.0198259)
(-0.0289652 -0.00259329 0.0171483)
(-0.033317 -0.00270888 0.0116442)
(-0.0328351 -0.0029456 0.00351419)
(-0.0257812 -0.00297759 -0.0051307)
(-0.0124717 -0.00219719 -0.00950677)
(-0.00217271 -4.55862e-05 -0.00475547)
(-0.00343622 -0.00602833 0.0163764)
(-0.0165204 -0.00844903 0.0322428)
(-0.0362212 -0.00857351 0.0368416)
(-0.0551322 -0.00805153 0.034281)
(-0.0701959 -0.00763088 0.0255239)
(-0.0778839 -0.00759667 0.0105354)
(-0.0744868 -0.00775445 -0.00886243)
(-0.0574542 -0.0074906 -0.0265234)
(-0.0283541 -0.00564034 -0.0310201)
(-0.00542184 -0.000940534 -0.0131154)
(-0.00525278 -0.00762887 0.0174404)
(-0.0245445 -0.011319 0.0361122)
(-0.0527363 -0.0115763 0.0408475)
(-0.0786839 -0.0107511 0.0356914)
(-0.0980004 -0.00987591 0.0218189)
(-0.106275 -0.00928499 -0.000163329)
(-0.0994732 -0.00886205 -0.0265859)
(-0.0752537 -0.008229 -0.0482486)
(-0.0364714 -0.00641195 -0.0494569)
(-0.00669667 -0.00195969 -0.0195164)
(-0.00642787 -0.0059775 0.0168273)
(-0.0298091 -0.00911901 0.0359965)
(-0.0634619 -0.00933975 0.040173)
(-0.0935388 -0.00858134 0.032934)
(-0.114831 -0.00768509 0.0155655)
(-0.122604 -0.00691477 -0.0106559)
(-0.112961 -0.00629231 -0.0407856)
(-0.0841451 -0.00571703 -0.0636859)
(-0.0399829 -0.0045868 -0.0615418)
(-0.00696292 -0.00172372 -0.0234481)
(-0.006993 -0.00222991 0.0162131)
(-0.0323812 -0.00343987 0.0352905)
(-0.0686818 -0.003522 0.039023)
(-0.100632 -0.00321445 0.0306665)
(-0.122632 -0.00283674 0.0115831)
(-0.129871 -0.00249135 -0.0165314)
(-0.118667 -0.00220935 -0.0480916)
(-0.0876778 -0.00198881 -0.071163)
(-0.0412108 -0.00162549 -0.0671508)
(-0.00695402 -0.000668109 -0.0252066)
(-0.006993 0.0022299 0.0162131)
(-0.0323812 0.00343985 0.0352905)
(-0.0686818 0.00352199 0.039023)
(-0.100632 0.00321443 0.0306665)
(-0.122632 0.00283673 0.0115831)
(-0.129871 0.00249135 -0.0165314)
(-0.118667 0.00220935 -0.0480916)
(-0.0876778 0.00198881 -0.071163)
(-0.0412108 0.00162549 -0.0671508)
(-0.00695402 0.000668108 -0.0252066)
(-0.00642787 0.00597748 0.0168274)
(-0.0298091 0.00911899 0.0359965)
(-0.0634619 0.00933973 0.040173)
(-0.0935388 0.00858133 0.032934)
(-0.114831 0.00768508 0.0155655)
(-0.122604 0.00691477 -0.0106559)
(-0.112961 0.00629231 -0.0407856)
(-0.0841451 0.00571703 -0.0636859)
(-0.0399829 0.0045868 -0.0615418)
(-0.00696292 0.00172372 -0.0234481)
(-0.00525277 0.00762884 0.0174404)
(-0.0245445 0.0113189 0.0361122)
(-0.0527362 0.0115763 0.0408475)
(-0.0786839 0.010751 0.0356915)
(-0.0980004 0.0098759 0.0218189)
(-0.106275 0.00928499 -0.000163326)
(-0.0994732 0.00886205 -0.0265859)
(-0.0752537 0.008229 -0.0482486)
(-0.0364714 0.00641195 -0.0494569)
(-0.00669667 0.00195969 -0.0195164)
(-0.00343621 0.0060283 0.0163765)
(-0.0165204 0.00844901 0.0322428)
(-0.0362212 0.0085735 0.0368417)
(-0.0551321 0.00805153 0.034281)
(-0.0701959 0.00763088 0.0255239)
(-0.0778839 0.00759667 0.0105354)
(-0.0744868 0.00775445 -0.00886242)
(-0.0574542 0.0074906 -0.0265234)
(-0.0283541 0.00564033 -0.0310201)
(-0.00542184 0.000940533 -0.0131154)
(-0.00111501 0.00215452 0.00984017)
(-0.00602332 0.0028277 0.0175946)
(-0.0139085 0.00283352 0.0200897)
(-0.0219247 0.00267536 0.0198259)
(-0.0289652 0.00259329 0.0171483)
(-0.033317 0.00270888 0.0116442)
(-0.0328351 0.0029456 0.00351419)
(-0.0257812 0.00297759 -0.0051307)
(-0.0124717 0.00219719 -0.00950677)
(-0.00217271 4.55857e-05 -0.00475547)
(-0.00149783 -0.00286051 0.0184184)
(-0.00741706 -0.00369869 0.0313487)
(-0.0165589 -0.00348076 0.0348762)
(-0.0260486 -0.00287123 0.0338373)
(-0.0352678 -0.00224913 0.0289745)
(-0.0425988 -0.00190489 0.019474)
(-0.0451068 -0.00197735 0.00514365)
(-0.039048 -0.00230684 -0.0111819)
(-0.0223686 -0.00200299 -0.0212274)
(-0.00543739 0.000122344 -0.013649)
(-0.00466002 -0.0078231 0.0307071)
(-0.0211262 -0.0106664 0.0569401)
(-0.0450418 -0.0100195 0.0633136)
(-0.0680879 -0.00799044 0.0579539)
(-0.0877535 -0.00573362 0.0427454)
(-0.100571 -0.0040482 0.0173627)
(-0.101555 -0.00337916 -0.0163657)
(-0.0848714 -0.00378249 -0.0497342)
(-0.0482159 -0.00366103 -0.0629171)
(-0.0116747 -0.000213895 -0.0328618)
(-0.00714907 -0.00967106 0.0337701)
(-0.0317779 -0.0138302 0.0646478)
(-0.0664634 -0.0128996 0.0709182)
(-0.0981114 -0.00982246 0.061141)
(-0.122841 -0.00619118 0.037802)
(-0.136407 -0.00309599 0.00160666)
(-0.133688 -0.00143062 -0.0432931)
(-0.108979 -0.0017191 -0.084081)
(-0.0608835 -0.00256078 -0.0942573)
(-0.0143229 -0.000743513 -0.0454956)
(-0.0087652 -0.00745588 0.0338567)
(-0.0387573 -0.0109125 0.0657003)
(-0.0802529 -0.0100889 0.0709092)
(-0.116643 -0.00739561 0.0577744)
(-0.143246 -0.00414933 0.0292536)
(-0.155805 -0.00128312 -0.012891)
(-0.149714 0.000259116 -0.0628815)
(-0.120037 -4.01628e-05 -0.105932)
(-0.0662479 -0.00116475 -0.112644)
(-0.0152291 -0.000631982 -0.0524901)
(-0.00953943 -0.00275787 0.0334675)
(-0.042136 -0.00407261 0.0652832)
(-0.0868597 -0.00374375 0.0697203)
(-0.125263 -0.0026853 0.0548511)
(-0.152318 -0.00140414 0.023947)
(-0.163926 -0.00026946 -0.0205928)
(-0.155984 0.000336127 -0.0722818)
(-0.124114 0.000197059 -0.115707)
(-0.0681448 -0.000299874 -0.120537)
(-0.0154963 -0.000238346 -0.0554081)
(-0.00953943 0.00275786 0.0334675)
(-0.042136 0.00407259 0.0652832)
(-0.0868597 0.00374374 0.0697204)
(-0.125263 0.00268529 0.0548511)
(-0.152318 0.00140413 0.023947)
(-0.163926 0.000269455 -0.0205928)
(-0.155984 -0.00033613 -0.0722818)
(-0.124114 -0.00019706 -0.115707)
(-0.0681448 0.000299873 -0.120537)
(-0.0154963 0.000238345 -0.0554081)
(-0.0087652 0.00745587 0.0338567)
(-0.0387573 0.0109125 0.0657003)
(-0.0802529 0.0100889 0.0709093)
(-0.116643 0.0073956 0.0577744)
(-0.143246 0.00414932 0.0292536)
(-0.155805 0.00128312 -0.012891)
(-0.149714 -0.000259118 -0.0628815)
(-0.120037 4.01614e-05 -0.105932)
(-0.0662479 0.00116475 -0.112644)
(-0.0152291 0.000631981 -0.0524901)
(-0.00714906 0.00967104 0.0337701)
(-0.0317779 0.0138301 0.0646478)
(-0.0664634 0.0128996 0.0709182)
(-0.0981114 0.00982245 0.061141)
(-0.122841 0.00619117 0.037802)
(-0.136407 0.00309599 0.00160666)
(-0.133688 0.00143061 -0.0432931)
(-0.108979 0.00171909 -0.084081)
(-0.0608835 0.00256078 -0.0942573)
(-0.0143229 0.000743511 -0.0454956)
(-0.00466002 0.00782309 0.0307072)
(-0.0211262 0.0106664 0.0569401)
(-0.0450418 0.0100195 0.0633136)
(-0.0680879 0.00799043 0.0579539)
(-0.0877535 0.00573361 0.0427454)
(-0.100571 0.0040482 0.0173627)
(-0.101555 0.00337916 -0.0163657)
(-0.0848714 0.00378249 -0.0497342)
(-0.0482159 0.00366103 -0.0629171)
(-0.0116747 0.000213894 -0.0328618)
(-0.00149783 0.0028605 0.0184184)
(-0.00741705 0.00369868 0.0313487)
(-0.0165589 0.00348076 0.0348763)
(-0.0260486 0.00287123 0.0338373)
(-0.0352678 0.00224913 0.0289745)
(-0.0425988 0.00190489 0.019474)
(-0.0451068 0.00197735 0.00514365)
(-0.039048 0.00230684 -0.0111819)
(-0.0223686 0.00200299 -0.0212274)
(-0.00543739 -0.000122344 -0.013649)
(-0.0020575 -0.00344353 0.0290015)
(-0.00878095 -0.0042637 0.0472633)
(-0.0183708 -0.00354212 0.0511537)
(-0.0285822 -0.00209638 0.0487701)
(-0.0399018 -0.000477143 0.0414121)
(-0.0513697 0.000805594 0.0276098)
(-0.0593482 0.00117144 0.00594986)
(-0.0572467 0.000291687 -0.0209481)
(-0.0389025 -0.000810235 -0.0410202)
(-0.0119996 2.60194e-05 -0.0313705)
(-0.00593801 -0.00924319 0.0482081)
(-0.0249264 -0.0119955 0.0855693)
(-0.051208 -0.00978888 0.0929584)
(-0.0766585 -0.00515169 0.0841537)
(-0.100316 0.000234026 0.0622884)
(-0.119668 0.00478251 0.0260887)
(-0.128683 0.00677869 -0.024163)
(-0.117334 0.00484772 -0.0790779)
(-0.0774541 0.000822746 -0.109897)
(-0.0230409 6.29397e-05 -0.0691111)
(-0.00885998 -0.0112006 0.0538046)
(-0.0372749 -0.0151572 0.0980154)
(-0.0756729 -0.0120248 0.105258)
(-0.110334 -0.0053124 0.0906329)
(-0.139033 0.00256376 0.058388)
(-0.158747 0.00923898 0.00850129)
(-0.16368 0.0122225 -0.0565468)
(-0.144304 0.00959385 -0.123188)
(-0.0936569 0.0034891 -0.154323)
(-0.0274092 0.00013826 -0.0905656)
(-0.0107116 -0.00851134 0.0549437)
(-0.0452025 -0.0117448 0.100809)
(-0.0910039 -0.00908988 0.106702)
(-0.13025 -0.00343109 0.0879668)
(-0.160041 0.00315917 0.0497954)
(-0.177677 0.00862301 -0.0065522)
(-0.178585 0.0108053 -0.0772807)
(-0.154609 0.00837777 -0.147478)
(-0.0997418 0.00328065 -0.177008)
(-0.029066 0.000179816 -0.101124)
(-0.0115797 -0.00312388 0.054973)
(-0.0489577 -0.004341 0.100987)
(-0.0981418 -0.00331174 0.105914)
(-0.139114 -0.00113356 0.0851552)
(-0.168741 0.00138453 0.0445006)
(-0.184773 0.00343525 -0.0140771)
(-0.183584 0.00418067 -0.0863406)
(-0.157848 0.00319627 -0.157281)
(-0.101801 0.00127332 -0.18589)
(-0.0296737 8.24871e-05 -0.105228)
(-0.0115797 0.00312388 0.054973)
(-0.0489577 0.00434099 0.100987)
(-0.0981418 0.00331173 0.105914)
(-0.139114 0.00113355 0.0851552)
(-0.168741 -0.00138454 0.0445006)
(-0.184773 -0.00343525 -0.0140771)
(-0.183584 -0.00418067 -0.0863406)
(-0.157848 -0.00319627 -0.157281)
(-0.101801 -0.00127332 -0.18589)
(-0.0296737 -8.24884e-05 -0.105228)
(-0.0107116 0.00851133 0.0549437)
(-0.0452025 0.0117448 0.100809)
(-0.0910039 0.00908987 0.106702)
(-0.13025 0.00343108 0.0879668)
(-0.160041 -0.00315917 0.0497954)
(-0.177677 -0.00862301 -0.0065522)
(-0.178585 -0.0108053 -0.0772807)
(-0.154609 -0.00837777 -0.147478)
(-0.0997418 -0.00328065 -0.177008)
(-0.029066 -0.000179818 -0.101124)
(-0.00885997 0.0112006 0.0538046)
(-0.0372749 0.0151572 0.0980154)
(-0.0756729 0.0120248 0.105258)
(-0.110334 0.00531239 0.0906329)
(-0.139033 -0.00256376 0.058388)
(-0.158747 -0.00923898 0.00850129)
(-0.16368 -0.0122225 -0.0565468)
(-0.144304 -0.00959385 -0.123188)
(-0.0936569 -0.0034891 -0.154323)
(-0.0274092 -0.000138261 -0.0905656)
(-0.00593801 0.00924318 0.0482081)
(-0.0249264 0.0119954 0.0855693)
(-0.051208 0.00978888 0.0929585)
(-0.0766585 0.00515169 0.0841537)
(-0.100316 -0.000234027 0.0622884)
(-0.119668 -0.00478251 0.0260887)
(-0.128683 -0.00677869 -0.024163)
(-0.117334 -0.00484772 -0.0790779)
(-0.0774541 -0.000822747 -0.109897)
(-0.0230409 -6.29403e-05 -0.0691111)
(-0.0020575 0.00344353 0.0290015)
(-0.00878095 0.0042637 0.0472633)
(-0.0183708 0.00354212 0.0511537)
(-0.0285822 0.00209638 0.0487701)
(-0.0399018 0.000477143 0.0414121)
(-0.0513697 -0.000805594 0.0276098)
(-0.0593482 -0.00117144 0.00594986)
(-0.0572467 -0.000291688 -0.0209481)
(-0.0389025 0.000810235 -0.0410202)
(-0.0119996 -2.60192e-05 -0.0313705)
(-0.00340458 -0.00392439 0.041847)
(-0.011064 -0.00448405 0.0640879)
(-0.019622 -0.0029051 0.066624)
(-0.0287558 -0.000151701 0.061781)
(-0.0408533 0.00310064 0.0516129)
(-0.0564994 0.00605133 0.0337343)
(-0.0721156 0.00751811 0.00464488)
(-0.0780818 0.00611211 -0.0352407)
(-0.0624054 0.0024441 -0.0708995)
(-0.0227978 -0.000325042 -0.0635448)
(-0.00798129 -0.0102743 0.0686964)
(-0.0286982 -0.0123285 0.11597)
(-0.0540815 -0.00771249 0.122518)
(-0.0779021 0.000620122 0.109506)
(-0.102015 0.0104083 0.081688)
(-0.126167 0.0190888 0.0363198)
(-0.144629 0.0231942 -0.0296504)
(-0.144004 0.0190686 -0.110004)
(-0.110203 0.0081052 -0.170007)
(-0.0387453 -0.000792575 -0.12992)
(-0.0109809 -0.0121538 0.076873)
(-0.0413004 -0.015233 0.133518)
(-0.0787098 -0.00901485 0.140442)
(-0.110821 0.00234363 0.121274)
(-0.138347 0.0153568 0.0824665)
(-0.160902 0.0261725 0.0225302)
(-0.173771 0.0302195 -0.0600714)
(-0.165229 0.0238913 -0.156224)
(-0.124224 0.0100532 -0.223086)
(-0.0435099 -0.000458049 -0.162369)
(-0.0127598 -0.0090854 0.0790586)
(-0.0490334 -0.0116093 0.138264)
(-0.0934096 -0.00654922 0.144055)
(-0.12899 0.00264041 0.120944)
(-0.155972 0.012908 0.07675)
(-0.174759 0.0209181 0.0111913)
(-0.182654 0.023119 -0.0767382)
(-0.170158 0.0174778 -0.177736)
(-0.12802 0.00709381 -0.246517)
(-0.0452812 -0.000158682 -0.176719)
(-0.0135562 -0.00330583 0.0795103)
(-0.052561 -0.00425244 0.139149)
(-0.0999535 -0.00233374 0.144043)
(-0.136551 0.00112736 0.119093)
(-0.162468 0.00493187 0.07292)
(-0.178852 0.00778116 0.00584169)
(-0.184432 0.00839281 -0.0832246)
(-0.170877 0.00617729 -0.185505)
(-0.129201 0.00245366 -0.255013)
(-0.0460354 -2.17131e-05 -0.182067)
(-0.0135562 0.00330583 0.0795103)
(-0.052561 0.00425243 0.139149)
(-0.0999535 0.00233373 0.144043)
(-0.136551 -0.00112737 0.119093)
(-0.162468 -0.00493188 0.07292)
(-0.178852 -0.00778116 0.00584169)
(-0.184432 -0.00839281 -0.0832246)
(-0.170877 -0.00617729 -0.185505)
(-0.129201 -0.00245366 -0.255013)
(-0.0460354 2.17119e-05 -0.182067)
(-0.0127598 0.00908539 0.0790586)
(-0.0490334 0.0116093 0.138264)
(-0.0934096 0.00654921 0.144055)
(-0.12899 -0.00264042 0.120944)
(-0.155972 -0.012908 0.07675)
(-0.174759 -0.0209181 0.0111913)
(-0.182654 -0.023119 -0.0767382)
(-0.170158 -0.0174778 -0.177736)
(-0.12802 -0.00709381 -0.246517)
(-0.0452812 0.000158681 -0.176719)
(-0.0109809 0.0121537 0.076873)
(-0.0413004 0.015233 0.133518)
(-0.0787098 0.00901485 0.140442)
(-0.110821 -0.00234364 0.121274)
(-0.138347 -0.0153568 0.0824665)
(-0.160902 -0.0261725 0.0225302)
(-0.173771 -0.0302195 -0.0600714)
(-0.165229 -0.0238913 -0.156224)
(-0.124224 -0.0100532 -0.223086)
(-0.0435099 0.000458048 -0.162369)
(-0.00798129 0.0102743 0.0686964)
(-0.0286982 0.0123285 0.11597)
(-0.0540815 0.00771249 0.122519)
(-0.0779021 -0.000620125 0.109506)
(-0.102015 -0.0104083 0.081688)
(-0.126167 -0.0190888 0.0363198)
(-0.144629 -0.0231942 -0.0296504)
(-0.144004 -0.0190686 -0.110004)
(-0.110203 -0.0081052 -0.170007)
(-0.0387453 0.000792574 -0.12992)
(-0.00340458 0.00392439 0.041847)
(-0.011064 0.00448404 0.0640879)
(-0.019622 0.0029051 0.066624)
(-0.0287558 0.0001517 0.061781)
(-0.0408533 -0.00310064 0.0516129)
(-0.0564994 -0.00605133 0.0337343)
(-0.0721156 -0.00751811 0.00464488)
(-0.0780818 -0.00611211 -0.0352407)
(-0.0624054 -0.0024441 -0.0708995)
(-0.0227978 0.000325041 -0.0635448)
(-0.00714772 -0.00461432 0.0590152)
(-0.016604 -0.00473654 0.0802838)
(-0.0207996 -0.00199561 0.0779047)
(-0.0248768 0.00240845 0.0685767)
(-0.0339141 0.00767565 0.0551942)
(-0.0509932 0.0128807 0.0342214)
(-0.0743584 0.0161763 -0.000479572)
(-0.0922862 0.0145683 -0.0535876)
(-0.0875439 0.00728819 -0.109952)
(-0.0361518 -0.00134096 -0.116932)
(-0.0128624 -0.0114686 0.0938692)
(-0.0350992 -0.0124192 0.145142)
(-0.0534149 -0.00489791 0.146537)
(-0.0675765 0.00744251 0.127855)
(-0.0834518 0.0218401 0.0956606)
(-0.104501 0.0351026 0.0457273)
(-0.128236 0.0420665 -0.0294149)
(-0.140751 0.0358826 -0.132783)
(-0.127154 0.0160318 -0.23178)
(-0.0499941 -0.00425564 -0.220222)
(-0.0156114 -0.0129843 0.10383)
(-0.0462173 -0.0148846 0.167071)
(-0.0747467 -0.00543244 0.170036)
(-0.0944428 0.0102138 0.146369)
(-0.110179 0.0276776 0.104651)
(-0.125626 0.0421364 0.0417138)
(-0.140348 0.0473603 -0.0490515)
(-0.143879 0.0373309 -0.170369)
(-0.128775 0.0146905 -0.284235)
(-0.0509565 -0.00408137 -0.262233)
(-0.0170071 -0.00945949 0.106456)
(-0.0524645 -0.0111133 0.173232)
(-0.0865057 -0.00376201 0.175884)
(-0.107905 0.00833969 0.149467)
(-0.121179 0.0213683 0.103958)
(-0.130981 0.0312432 0.0370136)
(-0.139516 0.0334251 -0.0579235)
(-0.139394 0.0247471 -0.184918)
(-0.12689 0.00888098 -0.304585)
(-0.0514454 -0.00254887 -0.279235)
(-0.0175733 -0.00339878 0.107046)
(-0.0551401 -0.00402863 0.17456)
(-0.0913864 -0.0013032 0.176675)
(-0.112947 0.0031529 0.149035)
(-0.124387 0.00784778 0.10238)
(-0.131231 0.0112205 0.0347057)
(-0.137337 0.0116759 -0.0609359)
(-0.136709 0.00834726 -0.189739)
(-0.126374 0.0028557 -0.311768)
(-0.0519806 -0.00082026 -0.285511)
(-0.0175733 0.00339878 0.107046)
(-0.0551401 0.00402862 0.17456)
(-0.0913864 0.00130319 0.176675)
(-0.112947 -0.00315291 0.149035)
(-0.124387 -0.00784778 0.10238)
(-0.131231 -0.0112205 0.0347057)
(-0.137337 -0.0116759 -0.0609359)
(-0.136709 -0.00834726 -0.189739)
(-0.126374 -0.0028557 -0.311768)
(-0.0519806 0.000820259 -0.285511)
(-0.0170071 0.00945949 0.106456)
(-0.0524645 0.0111133 0.173232)
(-0.0865057 0.003762 0.175884)
(-0.107905 -0.00833969 0.149467)
(-0.121179 -0.0213683 0.103958)
(-0.130981 -0.0312432 0.0370136)
(-0.139516 -0.0334251 -0.0579235)
(-0.139394 -0.0247471 -0.184918)
(-0.12689 -0.00888098 -0.304585)
(-0.0514454 0.00254887 -0.279235)
(-0.0156114 0.0129843 0.10383)
(-0.0462173 0.0148846 0.167071)
(-0.0747467 0.00543243 0.170036)
(-0.0944428 -0.0102138 0.146369)
(-0.110179 -0.0276776 0.104651)
(-0.125626 -0.0421364 0.0417138)
(-0.140348 -0.0473603 -0.0490515)
(-0.143879 -0.0373309 -0.170369)
(-0.128775 -0.0146905 -0.284235)
(-0.0509565 0.00408137 -0.262233)
(-0.0128624 0.0114686 0.0938692)
(-0.0350992 0.0124192 0.145142)
(-0.0534149 0.00489791 0.146537)
(-0.0675765 -0.00744252 0.127855)
(-0.0834518 -0.0218401 0.0956606)
(-0.104501 -0.0351026 0.0457273)
(-0.128236 -0.0420665 -0.0294149)
(-0.140751 -0.0358826 -0.132783)
(-0.127154 -0.0160319 -0.23178)
(-0.0499941 0.00425564 -0.220222)
(-0.00714772 0.00461432 0.0590152)
(-0.016604 0.00473654 0.0802838)
(-0.0207996 0.00199561 0.0779048)
(-0.0248768 -0.00240845 0.0685767)
(-0.0339141 -0.00767565 0.0551942)
(-0.0509932 -0.0128807 0.0342214)
(-0.0743584 -0.0161763 -0.00047957)
(-0.0922862 -0.0145683 -0.0535876)
(-0.0875439 -0.00728819 -0.109952)
(-0.0361518 0.00134096 -0.116932)
(-0.016564 -0.00632235 0.0817794)
(-0.0285151 -0.00641135 0.0923339)
(-0.0184963 -0.00263319 0.0805679)
(-0.00925767 0.00329013 0.0645006)
(-0.00765153 0.0102635 0.0478519)
(-0.0190271 0.0175744 0.0259386)
(-0.0456657 0.0232208 -0.0105762)
(-0.0762364 0.0219004 -0.0731821)
(-0.0964458 0.0103408 -0.152484)
(-0.0418242 -0.00602715 -0.195669)
(-0.025738 -0.0144459 0.12234)
(-0.0504214 -0.0151806 0.166377)
(-0.0461902 -0.00570005 0.157384)
(-0.0351642 0.00920995 0.130723)
(-0.0274689 0.0263487 0.0962835)
(-0.0298384 0.0429237 0.0490312)
(-0.0470927 0.053725 -0.0229401)
(-0.0685536 0.0476096 -0.136283)
(-0.0951718 0.0192149 -0.273998)
(-0.0359194 -0.0142316 -0.32624)
(-0.0286159 -0.0151868 0.132125)
(-0.0601273 -0.0169906 0.191002)
(-0.0627304 -0.0060444 0.185519)
(-0.0526069 0.011159 0.155778)
(-0.0399356 0.0301266 0.114447)
(-0.0314166 0.0464922 0.0573858)
(-0.0349937 0.0542387 -0.0264884)
(-0.0444089 0.0437086 -0.156304)
(-0.0751001 0.0141755 -0.314588)
(-0.0276098 -0.0123361 -0.367591)
(-0.0296335 -0.0105562 0.134276)
(-0.0644855 -0.0121493 0.19773)
(-0.0705924 -0.00404652 0.193309)
(-0.0604063 0.00852949 0.162513)
(-0.0442181 0.0219015 0.119163)
(-0.0291459 0.0324806 0.0595521)
(-0.0257798 0.0360316 -0.0273506)
(-0.0309923 0.0271059 -0.162625)
(-0.0668569 0.00770841 -0.328852)
(-0.0258675 -0.00726247 -0.382876)
(-0.0299391 -0.00370557 0.134661)
(-0.0660553 -0.00431151 0.199121)
(-0.0733729 -0.00137582 0.194747)
(-0.0627712 0.00313456 0.163537)
(-0.0447642 0.00781908 0.119783)
(-0.0269189 0.0113394 0.0598641)
(-0.021299 0.0122388 -0.0275999)
(-0.0261092 0.00888159 -0.1648)
(-0.0650703 0.00237892 -0.334064)
(-0.0260833 -0.00227649 -0.388521)
(-0.0299391 0.00370557 0.134661)
(-0.0660553 0.0043115 0.199121)
(-0.0733729 0.00137581 0.194747)
(-0.0627712 -0.00313456 0.163537)
(-0.0447642 -0.00781909 0.119783)
(-0.0269189 -0.0113394 0.0598641)
(-0.021299 -0.0122388 -0.0275999)
(-0.0261092 -0.00888159 -0.1648)
(-0.0650703 -0.00237892 -0.334064)
(-0.0260833 0.00227649 -0.388521)
(-0.0296335 0.0105562 0.134276)
(-0.0644855 0.0121493 0.19773)
(-0.0705924 0.00404651 0.193309)
(-0.0604063 -0.0085295 0.162513)
(-0.0442181 -0.0219015 0.119163)
(-0.0291459 -0.0324806 0.0595521)
(-0.0257798 -0.0360316 -0.0273506)
(-0.0309923 -0.0271059 -0.162625)
(-0.0668569 -0.00770841 -0.328852)
(-0.0258675 0.00726247 -0.382876)
(-0.0286159 0.0151868 0.132125)
(-0.0601273 0.0169906 0.191002)
(-0.0627304 0.00604439 0.185519)
(-0.052607 -0.011159 0.155778)
(-0.0399356 -0.0301266 0.114447)
(-0.0314166 -0.0464922 0.0573858)
(-0.0349937 -0.0542387 -0.0264884)
(-0.0444089 -0.0437086 -0.156304)
(-0.0751001 -0.0141755 -0.314588)
(-0.0276098 0.0123361 -0.367591)
(-0.025738 0.0144459 0.12234)
(-0.0504214 0.0151806 0.166377)
(-0.0461902 0.00570004 0.157384)
(-0.0351642 -0.00920996 0.130723)
(-0.0274689 -0.0263487 0.0962835)
(-0.0298384 -0.0429237 0.0490312)
(-0.0470927 -0.053725 -0.0229401)
(-0.0685536 -0.0476096 -0.136283)
(-0.0951718 -0.0192149 -0.273998)
(-0.0359194 0.0142316 -0.32624)
(-0.016564 0.00632234 0.0817794)
(-0.0285151 0.00641135 0.0923339)
(-0.0184963 0.00263319 0.0805679)
(-0.00925767 -0.00329013 0.0645006)
(-0.00765153 -0.0102635 0.0478519)
(-0.0190271 -0.0175744 0.0259386)
(-0.0456657 -0.0232208 -0.0105762)
(-0.0762364 -0.0219004 -0.0731821)
(-0.0964458 -0.0103408 -0.152484)
(-0.0418242 0.00602715 -0.195669)
(-0.0238558 -0.0112227 0.150276)
(-0.0204492 -0.0120164 0.0981628)
(0.0277155 -0.00743661 0.0628778)
(0.0619013 -0.000899404 0.0415702)
(0.0827139 0.00648726 0.0251954)
(0.0850696 0.0143867 0.00741836)
(0.0629193 0.0216542 -0.0211363)
(0.0254758 0.0209113 -0.0786502)
(-0.0421453 0.0052266 -0.173861)
(-0.00682387 -0.0178138 -0.259618)
(-0.0425903 -0.0230015 0.209716)
(-0.0420236 -0.0260524 0.169486)
(0.0224616 -0.0167533 0.127784)
(0.0781595 -0.00259231 0.0957733)
(0.122844 0.0136933 0.0663127)
(0.150903 0.03031 0.0326334)
(0.14926 0.0447128 -0.0167531)
(0.130316 0.0428775 -0.107193)
(0.0397116 0.0103248 -0.256195)
(0.0436022 -0.0317893 -0.369436)
(-0.0479063 -0.0208864 0.219889)
(-0.0517192 -0.0258956 0.189806)
(0.011766 -0.0172708 0.151154)
(0.072046 -0.0030529 0.117946)
(0.125627 0.0133254 0.0847209)
(0.167622 0.028939 0.0451686)
(0.180201 0.0403562 -0.0112167)
(0.175692 0.0357901 -0.110381)
(0.0803481 0.00611799 -0.275121)
(0.0629994 -0.0225264 -0.395098)
(-0.0489365 -0.0133588 0.220888)
(-0.0545439 -0.0172384 0.193915)
(0.00762127 -0.0114473 0.156885)
(0.0690405 -0.00185182 0.123986)
(0.125629 0.00895831 0.090143)
(0.172817 0.0188055 0.0490777)
(0.19029 0.0250902 -0.0095771)
(0.189944 0.0211274 -0.111682)
(0.0903394 0.00360552 -0.281822)
(0.0660455 -0.0117794 -0.403803)
(-0.0489824 -0.00450617 0.220678)
(-0.0549851 -0.00590795 0.19426)
(0.00686788 -0.00388645 0.157618)
(0.0687993 -0.000567628 0.124886)
(0.126406 0.00310392 0.0910869)
(0.17515 0.00635623 0.0498593)
(0.19375 0.00827664 -0.00939687)
(0.193666 0.0068152 -0.112646)
(0.0914435 0.001218 -0.284617)
(0.0656652 -0.00349292 -0.406977)
(-0.0489824 0.00450617 0.220678)
(-0.0549851 0.00590794 0.19426)
(0.00686788 0.00388644 0.157618)
(0.0687993 0.000567622 0.124886)
(0.126406 -0.00310393 0.0910869)