/*--------------------------------*- C++ -*----------------------------------*\
  =========                 |
  \\      /  F ield         | OpenFOAM: The Open Source CFD Toolbox
   \\    /   O peration     | Website:  https://openfoam.org
    \\  /    A nd           | Version:  9
     \\/     M anipulation  |
\*---------------------------------------------------------------------------*/
FoamFile
{
    format      ascii;
    class       volScalarField;
    location    "0.62";
    object      p;
}
// * * * * * * * * * * * * * * * * * * * * * * * * * * * * * * * * * * * * * //

dimensions      [0 2 -2 0 0 0 0];

internalField   nonuniform List<scalar> 
1000
(
3.99138e-09
-0.000477004
-0.000138948
0.000954332
0.00286485
0.00546112
0.00828726
0.01059
0.0116701
0.0108261
0.000168031
-0.00070876
-0.000475399
0.000660961
0.00274744
0.00563538
0.0087968
0.0113163
0.0123421
0.0109568
0.000915431
-0.000226218
-2.9514e-05
0.00120448
0.00353238
0.00678134
0.0103179
0.0129857
0.0137747
0.0116618
0.00171847
0.000402497
0.000586712
0.00191802
0.00446581
0.00804344
0.0118446
0.0145736
0.0151144
0.0124233
0.00222087
0.000823425
0.00100701
0.0023959
0.00506471
0.00881136
0.0127575
0.0155018
0.0158934
0.0128965
0.00222056
0.000823159
0.00100681
0.00239574
0.0050646
0.00881129
0.0127574
0.0155017
0.0158934
0.0128965
0.00171748
0.000401648
0.000586063
0.00191754
0.00446549
0.00804321
0.0118444
0.0145735
0.0151143
0.0124232
0.000913472
-0.000227809
-3.06491e-05
0.00120369
0.00353187
0.00678099
0.0103177
0.0129855
0.0137745
0.0116617
0.000164312
-0.000711398
-0.000477078
0.000659872
0.00274674
0.00563491
0.00879647
0.0113161
0.012342
0.0109567
-7.51803e-06
-0.000480906
-0.000141089
0.000953052
0.00286405
0.0054606
0.0082869
0.0105898
0.0116699
0.0108259
0.000385228
-4.12066e-05
0.000319225
0.00129149
0.0029631
0.00527774
0.007873
0.0100897
0.0111897
0.0100688
0.000917346
1.83865e-05
0.000298316
0.00125954
0.00296324
0.00536742
0.00810417
0.0104447
0.011506
0.0097332
0.00208984
0.000799376
0.00101543
0.00197553
0.00374663
0.00628797
0.00926369
0.0116841
0.0125455
0.0100317
0.00319226
0.00160746
0.00176714
0.00272934
0.00457599
0.00728993
0.010427
0.0128786
0.0135386
0.0104834
0.00384492
0.00210509
0.00223331
0.00319701
0.00508649
0.00790048
0.0111232
0.0135789
0.0141198
0.0107968
0.00384465
0.00210485
0.00223312
0.00319686
0.00508639
0.0079004
0.0111231
0.0135789
0.0141197
0.0107967
0.00319141
0.00160672
0.00176656
0.00272892
0.0045757
0.00728972
0.0104269
0.0128785
0.0135385
0.0104833
0.00208826
0.000798044
0.00101444
0.00197483
0.00374616
0.00628764
0.00926345
0.0116839
0.0125453
0.0100316
0.000914738
1.63591e-05
0.000296909
0.00125859
0.00296261
0.00536698
0.00810387
0.0104445
0.0115058
0.00973305
0.000381336
-4.38917e-05
0.000317495
0.00129038
0.00296237
0.00527724
0.00787266
0.0100895
0.0111895
0.0100686
-0.000948115
-0.0015075
-0.00125723
-0.000473323
0.00103268
0.00337477
0.00633316
0.00923286
0.0109925
0.00969839
-9.86641e-05
-0.00129472
-0.00112907
-0.000352576
0.00118839
0.00364605
0.00679788
0.00986857
0.0115577
0.00912604
0.00158156
-0.000180028
-0.000134226
0.000556146
0.00207789
0.00465066
0.00800433
0.011201
0.0126931
0.00922391
0.00309625
0.00090999
0.000841012
0.00144799
0.00295638
0.00562157
0.00911946
0.0123664
0.0136593
0.00949583
0.00397207
0.00156202
0.00142602
0.0019844
0.00348723
0.00620102
0.0097636
0.0130162
0.0141919
0.00970616
0.00397185
0.00156183
0.00142586
0.00198427
0.00348714
0.00620096
0.00976355
0.0130162
0.0141919
0.00970614
0.00309559
0.000909417
0.000840544
0.00144763
0.00295613
0.00562139
0.00911932
0.0123663
0.0136592
0.00949577
0.00158042
-0.000181019
-0.000135009
0.000555564
0.00207749
0.00465037
0.00800412
0.0112009
0.012693
0.0092238
-0.000100345
-0.00129613
-0.00113013
-0.000353344
0.00118785
0.00364566
0.0067976
0.00986835
0.0115576
0.0091259
-0.000950268
-0.00150922
-0.00125849
-0.000474201
0.00103206
0.00337434
0.00633285
0.00923262
0.0109923
0.00969823
-0.00438875
-0.00507413
-0.00498721
-0.00446864
-0.00315681
-0.000630526
0.00317201
0.0076392
0.0110819
0.0101925
-0.00321761
-0.00469266
-0.0046941
-0.00416582
-0.00278502
-8.85721e-05
0.00401134
0.0088114
0.0121886
0.00957538
-0.0010126
-0.00322988
-0.0034528
-0.00315958
-0.00196213
0.000746183
0.00500253
0.0100582
0.0133621
0.00957702
0.000937027
-0.0018363
-0.00227333
-0.00221032
-0.00119287
0.00145186
0.00582045
0.0109983
0.0141967
0.00971449
0.00205032
-0.00101499
-0.00157727
-0.00164784
-0.000729612
0.00187941
0.00626965
0.011477
0.0146079
0.00983151
0.00205016
-0.00101513
-0.0015774
-0.00164795
-0.000729692
0.00187935
0.00626961
0.0114769
0.0146078
0.00983148
0.000936546
-0.00183673
-0.00227369
-0.00221061
-0.00119309
0.0014517
0.00582033
0.0109982
0.0141966
0.00971442
-0.00101338
-0.00323059
-0.00345339
-0.00316004
-0.00196247
0.000745926
0.00500233
0.010058
0.0133619
0.00957691
-0.0032187
-0.00469361
-0.00469488
-0.00416641
-0.00278547
-8.89014e-05
0.00401109
0.0088112
0.0121885
0.00957524
-0.00439002
-0.00507523
-0.00498809
-0.00446929
-0.00315731
-0.000630883
0.00317174
0.00763899
0.0110817
0.0101923
-0.0106242
-0.0112688
-0.011276
-0.0110485
-0.0100096
-0.00722744
-0.00208747
0.00512182
0.0119065
0.0131016
-0.00916669
-0.0107338
-0.0108519
-0.0106326
-0.00952127
-0.00663004
-0.00118681
0.00657901
0.0135327
0.0128716
-0.00653468
-0.00901131
-0.00952455
-0.00980897
-0.00922604
-0.00664994
-0.00121737
0.00698176
0.014245
0.0128887
-0.00424801
-0.00739934
-0.00828073
-0.00902903
-0.00890056
-0.00660749
-0.00126289
0.00715133
0.0145937
0.0129493
-0.00295783
-0.00646048
-0.0075524
-0.00855896
-0.00867435
-0.00655449
-0.00127028
0.0072063
0.0147119
0.012985
-0.00295795
-0.00646059
-0.0075525
-0.00855904
-0.00867441
-0.00655454
-0.00127032
0.00720627
0.0147119
0.012985
-0.00424835
-0.00739966
-0.00828099
-0.00902925
-0.00890074
-0.00660763
-0.001263
0.00715124
0.0145936
0.0129492
-0.00653521
-0.0090118
-0.00952497
-0.00980931
-0.00922631
-0.00665016
-0.00121755
0.00698161
0.0142449
0.0128886
-0.0091674
-0.0107345
-0.0108525
-0.0106331
-0.00952163
-0.00663031
-0.00118704
0.00657882
0.0135325
0.0128714
-0.010625
-0.0112695
-0.0112766
-0.011049
-0.01001
-0.00722775
-0.00208774
0.0051216
0.0119063
0.0131014
-0.0203034
-0.0203764
-0.0201223
-0.0200443
-0.0192577
-0.0162619
-0.00939939
0.00188393
0.0146683
0.0213073
-0.0185846
-0.0197397
-0.0196842
-0.0197437
-0.0191573
-0.0164337
-0.0097364
0.00207508
0.0155104
0.0216675
-0.0156508
-0.0178713
-0.0184665
-0.0194413
-0.0199039
-0.0181292
-0.0119324
0.000396982
0.0149072
0.0216951
-0.0131626
-0.0161488
-0.0173083
-0.0190511
-0.0203432
-0.0192841
-0.0134586
-0.000879437
0.0142672
0.0216225
-0.0117809
-0.0151586
-0.0166288
-0.0187751
-0.020479
-0.0197477
-0.0141397
-0.00149591
0.0139119
0.0215526
-0.011781
-0.0151587
-0.0166288
-0.0187752
-0.020479
-0.0197478
-0.0141397
-0.00149594
0.0139119
0.0215526
-0.0131629
-0.0161491
-0.0173085
-0.0190513
-0.0203433
-0.0192843
-0.0134588
-0.000879539
0.0142671
0.0216224
-0.0156512
-0.0178716
-0.0184669
-0.0194415
-0.0199041
-0.0181294
-0.0119325
0.000396821
0.0149071
0.021695
-0.0185851
-0.0197402
-0.0196846
-0.019744
-0.0191576
-0.016434
-0.00973663
0.00207488
0.0155102
0.0216673
-0.020304
-0.0203769
-0.0201228
-0.0200447
-0.0192581
-0.0162622
-0.00939964
0.0018837
0.014668
0.0213072
-0.0345362
-0.0323141
-0.0308127
-0.0303459
-0.0296714
-0.0265453
-0.0180296
-0.0014868
0.0203941
0.0390911
-0.0323602
-0.0315271
-0.0304666
-0.0305065
-0.0305904
-0.0286068
-0.0213447
-0.00497042
0.0180822
0.0392111
-0.0291058
-0.0294529
-0.0293539
-0.0308108
-0.0326259
-0.0324616
-0.0265313
-0.00984779
0.015035
0.0390573
-0.0264711
-0.0276152
-0.0282633
-0.0307852
-0.0338108
-0.0348105
-0.0296632
-0.012794
0.0131344
0.0389213
-0.025047
-0.0265868
-0.027628
-0.0306732
-0.0342543
-0.0357613
-0.0309583
-0.01404
0.0123097
0.0388401
-0.0250471
-0.0265868
-0.027628
-0.0306732
-0.0342544
-0.0357613
-0.0309583
-0.01404
0.0123097
0.03884
-0.0264713
-0.0276154
-0.0282635
-0.0307853
-0.0338109
-0.0348106
-0.0296633
-0.0127941
0.0131343
0.0389212
-0.0291061
-0.0294532
-0.0293541
-0.030811
-0.0326261
-0.0324618
-0.0265315
-0.00984796
0.0150349
0.0390571
-0.0323605
-0.0315274
-0.0304669
-0.0305067
-0.0305907
-0.028607
-0.0213449
-0.00497062
0.018082
0.0392109
-0.0345365
-0.0323144
-0.030813
-0.0303462
-0.0296717
-0.0265456
-0.0180298
-0.00148703
0.0203939
0.0390909
-0.0571709
-0.0466775
-0.0418621
-0.0397391
-0.0386063
-0.0351341
-0.0253368
-0.00287891
0.0304588
0.0733243
-0.053864
-0.0452107
-0.0412723
-0.0404288
-0.0408754
-0.0396415
-0.0327782
-0.0118644
0.0227086
0.0737761
-0.049688
-0.0422893
-0.039536
-0.0406747
-0.0435101
-0.0447321
-0.0399606
-0.0189584
0.01798
0.0751929
-0.0466037
-0.0399636
-0.0380314
-0.0404569
-0.0447956
-0.0474105
-0.0437006
-0.0223865
0.0159845
0.0765291
-0.0450283
-0.0387475
-0.03723
-0.0402479
-0.0452253
-0.0483929
-0.0451167
-0.0236465
0.0153434
0.0771741
-0.0450283
-0.0387476
-0.03723
-0.0402479
-0.0452254
-0.0483929
-0.0451167
-0.0236465
0.0153434
0.0771741
-0.0466038
-0.0399637
-0.0380315
-0.040457
-0.0447958
-0.0474106
-0.0437007
-0.0223866
0.0159844
0.076529
-0.0496882
-0.0422894
-0.0395362
-0.0406749
-0.0435103
-0.0447323
-0.0399607
-0.0189586
0.0179798
0.0751928
-0.0538643
-0.0452109
-0.0412725
-0.0404291
-0.0408756
-0.0396417
-0.0327784
-0.0118646
0.0227084
0.073776
-0.0571711
-0.0466777
-0.0418623
-0.0397393
-0.0386065
-0.0351343
-0.025337
-0.00287912
0.0304586
0.0733241
-0.0887499
-0.0609857
-0.0516944
-0.0460128
-0.0432498
-0.0387049
-0.0261177
0.00481802
0.0517026
0.150889
-0.0810685
-0.0570686
-0.0502926
-0.0470259
-0.0466246
-0.0448192
-0.0359671
-0.00598601
0.045307
0.162502
-0.0746644
-0.0522766
-0.0470608
-0.0463103
-0.0488406
-0.0497051
-0.0429391
-0.011336
0.0462988
0.171518
-0.0706788
-0.0489994
-0.0446698
-0.0454434
-0.0496885
-0.0520363
-0.0460973
-0.0131943
0.0475744
0.177191
-0.0688401
-0.0474287
-0.043514
-0.0449652
-0.0499285
-0.0528702
-0.0472183
-0.0137885
0.0482758
0.179653
-0.0688402
-0.0474288
-0.0435141
-0.0449652
-0.0499285
-0.0528703
-0.0472183
-0.0137885
0.0482758
0.179653
-0.0706788
-0.0489995
-0.0446698
-0.0454435
-0.0496886
-0.0520364
-0.0460974
-0.0131944
0.0475743
0.177191
-0.0746645
-0.0522768
-0.0470609
-0.0463105
-0.0488407
-0.0497053
-0.0429392
-0.0113361
0.0462986
0.171517
-0.0810687
-0.0570688
-0.0502927
-0.0470261
-0.0466248
-0.0448194
-0.0359673
-0.00598619
0.0453068
0.162501
-0.0887501
-0.060986
-0.0516947
-0.046013
-0.0432501
-0.0387051
-0.0261179
0.00481783
0.0517024
0.150889
-0.199061
-0.0737195
-0.0486758
-0.0401484
-0.0358162
-0.029074
-0.012222
0.0329144
0.119061
0.324649
-0.186788
-0.0610461
-0.0409097
-0.0367792
-0.0360927
-0.0326762
-0.0182385
0.0297096
0.129526
0.359244
-0.177916
-0.0521686
-0.0342906
-0.0332288
-0.0357321
-0.034708
-0.0212711
0.0297621
0.138799
0.380066
-0.172795
-0.0471393
-0.0302715
-0.0309275
-0.0352744
-0.0355817
-0.0224769
0.0301993
0.143382
0.390061
-0.170545
-0.0449706
-0.0285215
-0.0299056
-0.0350363
-0.0359153
-0.0229471
0.0303847
0.145122
0.393864
-0.170545
-0.0449707
-0.0285215
-0.0299056
-0.0350363
-0.0359154
-0.0229471
0.0303847
0.145122
0.393864
-0.172795
-0.0471394
-0.0302715
-0.0309275
-0.0352745
-0.0355818
-0.022477
0.0301992
0.143382
0.390061
-0.177916
-0.0521687
-0.0342907
-0.0332289
-0.0357322
-0.0347082
-0.0212712
0.029762
0.138798
0.380066
-0.186788
-0.0610463
-0.0409098
-0.0367794
-0.0360929
-0.0326764
-0.0182386
0.0297094
0.129525
0.359244
-0.199061
-0.0737197
-0.048676
-0.0401485
-0.0358164
-0.0290741
-0.0122222
0.0329142
0.11906
0.324649
)
;

boundaryField
{
    top
    {
        type            zeroGradient;
    }
    others
    {
        type            zeroGradient;
    }
}


// ************************************************************************* //
