/*--------------------------------*- C++ -*----------------------------------*\
  =========                 |
  \\      /  F ield         | OpenFOAM: The Open Source CFD Toolbox
   \\    /   O peration     | Website:  https://openfoam.org
    \\  /    A nd           | Version:  9
     \\/     M anipulation  |
\*---------------------------------------------------------------------------*/
FoamFile
{
    format      ascii;
    class       surfaceScalarField;
    location    "0.35";
    object      phi;
}
// * * * * * * * * * * * * * * * * * * * * * * * * * * * * * * * * * * * * * //

dimensions      [0 3 -1 0 0 0 0];

internalField   nonuniform List<scalar> 
2700
(
-7.75675e-08
-7.62142e-08
1.53622e-07
-3.3297e-07
-7.21617e-08
3.27564e-07
-6.48097e-07
-6.77157e-08
3.82842e-07
-9.40556e-07
-8.26609e-08
3.7512e-07
-1.13677e-06
-1.22164e-07
3.18383e-07
-1.15852e-06
-1.82579e-07
2.04326e-07
-9.4943e-07
-2.4584e-07
3.67491e-08
-5.39395e-07
-2.7389e-07
-1.36145e-07
-1.17606e-07
-2.24753e-07
-1.97036e-07
-7.07829e-08
-4.68226e-08
-1.79213e-07
-1.54462e-07
2.5746e-07
-6.93486e-07
-1.87345e-07
6.29457e-07
-1.31097e-06
-1.92629e-07
7.42396e-07
-1.86589e-06
-2.18157e-07
6.90414e-07
-2.22023e-06
-2.76349e-07
5.08526e-07
-2.23612e-06
-3.60343e-07
1.93659e-07
-1.81881e-06
-4.40793e-07
-2.22356e-07
-1.03765e-06
-4.62984e-07
-5.92065e-07
-2.481e-07
-3.77005e-07
-6.37301e-07
-1.50643e-07
-1.68241e-07
-2.37744e-07
-1.6003e-07
2.43313e-07
-8.98498e-07
-2.13758e-07
6.87168e-07
-1.68302e-06
-2.26226e-07
8.18119e-07
-2.37893e-06
-2.49811e-07
7.27568e-07
-2.81196e-06
-2.99419e-07
4.56095e-07
-2.81161e-06
-3.70081e-07
9.384e-09
-2.25812e-06
-4.30548e-07
-5.6373e-07
-1.25379e-06
-4.39767e-07
-1.02755e-06
-2.7232e-07
-3.58325e-07
-1.00015e-06
-1.585e-07
-2.64463e-07
-2.66433e-07
-9.81264e-08
2.0453e-07
-1.00626e-06
-1.36615e-07
6.62687e-07
-1.88245e-06
-1.46147e-07
7.96113e-07
-2.65565e-06
-1.59475e-07
6.82862e-07
-3.13066e-06
-1.86197e-07
3.61782e-07
-3.10994e-06
-2.23337e-07
-1.67462e-07
-2.47101e-06
-2.54545e-07
-8.14925e-07
-1.33603e-06
-2.56624e-07
-1.31813e-06
-2.58732e-07
-2.09693e-07
-1.22593e-06
-9.75538e-08
-3.19679e-07
-2.77694e-07
-2.30857e-12
1.7957e-07
-1.05131e-06
-2.43094e-12
6.37006e-07
-1.96751e-06
-1.94671e-12
7.7005e-07
-2.77458e-06
-1.40828e-12
6.476e-07
-3.26695e-06
-9.93829e-13
3.06175e-07
-3.23616e-06
-6.8904e-13
-2.54122e-07
-2.55578e-06
-4.66164e-13
-9.34934e-07
-1.36116e-06
-3.52756e-13
-1.45124e-06
-2.45166e-07
-3.19248e-13
-1.32569e-06
-3.76463e-13
-3.4272e-07
-2.77693e-07
9.81207e-08
1.7957e-07
-1.05131e-06
1.3661e-07
6.37006e-07
-1.96751e-06
1.46143e-07
7.7005e-07
-2.77458e-06
1.59473e-07
6.476e-07
-3.26695e-06
1.86195e-07
3.06175e-07
-3.23616e-06
2.23336e-07
-2.54122e-07
-2.55578e-06
2.54544e-07
-9.34934e-07
-1.36116e-06
2.56623e-07
-1.45124e-06
-2.45166e-07
2.09693e-07
-1.32569e-06
9.75531e-08
-3.4272e-07
-2.66431e-07
1.6002e-07
2.04532e-07
-1.00626e-06
2.1375e-07
6.62689e-07
-1.88245e-06
2.26221e-07
7.96114e-07
-2.65565e-06
2.49808e-07
6.82863e-07
-3.13066e-06
2.99417e-07
3.61782e-07
-3.10994e-06
3.70079e-07
-1.67462e-07
-2.47101e-06
4.30547e-07
-8.14925e-07
-1.33603e-06
4.39766e-07
-1.31813e-06
-2.58732e-07
3.58325e-07
-1.22593e-06
1.585e-07
-3.19679e-07
-2.37739e-07
1.5444e-07
2.43319e-07
-8.98493e-07
1.87332e-07
6.87172e-07
-1.68302e-06
1.92623e-07
8.18122e-07
-2.37893e-06
2.18154e-07
7.27569e-07
-2.81196e-06
2.76347e-07
4.56096e-07
-2.8116e-06
3.60342e-07
9.38409e-09
-2.25812e-06
4.40793e-07
-5.6373e-07
-1.25379e-06
4.62984e-07
-1.02755e-06
-2.7232e-07
3.77005e-07
-1.00015e-06
1.50642e-07
-2.64463e-07
-1.79196e-07
7.61596e-08
2.57477e-07
-6.93475e-07
7.21448e-08
6.29466e-07
-1.31096e-06
6.77103e-08
7.424e-07
-1.86588e-06
8.26588e-08
6.90416e-07
-2.22022e-06
1.22163e-07
5.08527e-07
-2.23612e-06
1.82578e-07
1.93659e-07
-1.81881e-06
2.4584e-07
-2.22356e-07
-1.03765e-06
2.7389e-07
-5.92065e-07
-2.481e-07
2.24753e-07
-6.37301e-07
7.0783e-08
-1.68241e-07
-7.75153e-08
1.53675e-07
-3.32951e-07
3.27581e-07
-6.48089e-07
3.82848e-07
-9.40552e-07
3.75122e-07
-1.13677e-06
3.18383e-07
-1.15852e-06
2.04326e-07
-9.49429e-07
3.67491e-08
-5.39394e-07
-1.36145e-07
-1.17605e-07
-1.97036e-07
-4.68225e-08
-2.30105e-07
-2.05097e-07
5.88824e-07
-7.32918e-07
-2.46296e-07
1.07667e-06
-1.311e-06
-2.48772e-07
1.2097e-06
-1.83517e-06
-2.56798e-07
1.15609e-06
-2.18512e-06
-2.86147e-07
9.54472e-07
-2.23222e-06
-3.36844e-07
5.88276e-07
-1.88073e-06
-3.89956e-07
7.52108e-08
-1.1517e-06
-3.94177e-07
-4.70995e-07
-3.3795e-07
-2.95087e-07
-7.15699e-07
-5.27002e-08
-3.32072e-07
-5.79846e-07
-3.42807e-07
9.75017e-07
-1.71313e-06
-4.64435e-07
1.98088e-06
-2.97523e-06
-4.82775e-07
2.2385e-06
-4.0734e-06
-4.98652e-07
2.03043e-06
-4.75707e-06
-5.44567e-07
1.45062e-06
-4.7886e-06
-6.17863e-07
5.0621e-07
-3.99751e-06
-6.89798e-07
-7.13606e-07
-2.47075e-06
-6.81198e-07
-1.8318e-06
-7.90225e-07
-5.21529e-07
-2.09139e-06
-1.6033e-07
-8.50836e-07
-7.94053e-07
-3.27006e-07
1.02157e-06
-2.31286e-06
-4.7152e-07
2.21306e-06
-3.97646e-06
-4.97972e-07
2.49691e-06
-5.39296e-06
-5.13611e-07
2.15903e-06
-6.23706e-06
-5.54149e-07
1.30977e-06
-6.2273e-06
-6.18703e-07
4.66337e-10
-5.1415e-06
-6.68992e-07
-1.67033e-06
-3.13506e-06
-6.50086e-07
-3.0651e-06
-9.81052e-07
-5.05072e-07
-3.17062e-06
-1.8936e-07
-1.21648e-06
-9.04223e-07
-1.92754e-07
9.745e-07
-2.6344e-06
-2.86872e-07
2.20822e-06
-4.517e-06
-3.0532e-07
2.48606e-06
-6.10225e-06
-3.14192e-07
2.06869e-06
-7.02623e-06
-3.35915e-07
1.06753e-06
-6.96997e-06
-3.6979e-07
-4.72633e-07
-5.70697e-06
-3.93908e-07
-2.35301e-06
-3.43037e-06
-3.79532e-07
-3.86529e-06
-1.03745e-06
-2.9776e-07
-3.82616e-06
-1.21897e-07
-1.42459e-06
-9.47995e-07
-2.32032e-12
9.34814e-07
-2.76856e-06
-2.90072e-12
2.17071e-06
-4.74561e-06
-2.47037e-12
2.44178e-06
-6.40278e-06
-1.71204e-12
1.99058e-06
-7.35883e-06
-1.12981e-12
9.26307e-07
-7.27755e-06
-6.78192e-13
-7.05195e-07
-5.93234e-06
-3.70117e-13
-2.67404e-06
-3.53689e-06
-2.30206e-13
-4.22623e-06
-1.04766e-06
-2.25671e-13
-4.11267e-06
-2.9396e-13
-1.51228e-06
-9.47995e-07
1.92748e-07
9.34815e-07
-2.76856e-06
2.86865e-07
2.17071e-06
-4.74561e-06
3.05315e-07
2.44178e-06
-6.40278e-06
3.14189e-07
1.99058e-06
-7.35883e-06
3.35913e-07
9.26307e-07
-7.27755e-06
3.69789e-07
-7.05195e-07
-5.93234e-06
3.93908e-07
-2.67404e-06
-3.53689e-06
3.79531e-07
-4.22623e-06
-1.04766e-06
2.9776e-07
-4.11267e-06
1.21896e-07
-1.51228e-06
-9.0422e-07
3.26998e-07
9.74503e-07
-2.6344e-06
4.71513e-07
2.20822e-06
-4.517e-06
4.97967e-07
2.48606e-06
-6.10225e-06
5.13608e-07
2.06869e-06
-7.02623e-06
5.54147e-07
1.06753e-06
-6.96997e-06
6.18702e-07
-4.72633e-07
-5.70697e-06
6.68991e-07
-2.35301e-06
-3.43037e-06
6.50085e-07
-3.86529e-06
-1.03745e-06
5.05071e-07
-3.82616e-06
1.8936e-07
-1.42459e-06
-7.94049e-07
3.42794e-07
1.02157e-06
-2.31286e-06
4.64426e-07
2.21307e-06
-3.97646e-06
4.82769e-07
2.49692e-06
-5.39296e-06
4.98648e-07
2.15903e-06
-6.23705e-06
5.44565e-07
1.30977e-06
-6.2273e-06
6.17862e-07
4.66659e-10
-5.1415e-06
6.89798e-07
-1.67033e-06
-3.13506e-06
6.81198e-07
-3.0651e-06
-9.81052e-07
5.21529e-07
-3.17062e-06
1.60329e-07
-1.21648e-06
-5.79836e-07
2.0508e-07
9.75029e-07
-1.71312e-06
2.46287e-07
1.98089e-06
-2.97523e-06
2.48768e-07
2.23851e-06
-4.07339e-06
2.56796e-07
2.03044e-06
-4.75706e-06
2.86146e-07
1.45062e-06
-4.7886e-06
3.36844e-07
5.0621e-07
-3.99751e-06
3.89956e-07
-7.13606e-07
-2.47075e-06
3.94177e-07
-1.8318e-06
-7.90224e-07
2.95087e-07
-2.09139e-06
5.27001e-08
-8.50836e-07
-2.30088e-07
5.88844e-07
-7.32907e-07
1.07669e-06
-1.31099e-06
1.2097e-06
-1.83517e-06
1.15609e-06
-2.18511e-06
9.54473e-07
-2.23222e-06
5.88276e-07
-1.88073e-06
7.52111e-08
-1.1517e-06
-4.70995e-07
-3.37949e-07
-7.15699e-07
-3.32072e-07
-3.40392e-07
-3.20095e-07
1.24931e-06
-1.01521e-06
-3.97372e-07
2.14886e-06
-1.77093e-06
-3.97637e-07
2.36305e-06
-2.47121e-06
-3.85734e-07
2.24211e-06
-2.98751e-06
-3.89147e-07
1.85991e-06
-3.15472e-06
-4.17269e-07
1.17275e-06
-2.79931e-06
-4.54781e-07
1.74584e-07
-1.85995e-06
-4.56321e-07
-9.54032e-07
-6.44008e-07
-3.40371e-07
-1.59127e-06
-2.74693e-08
-9.48611e-07
-8.99005e-07
-5.12686e-07
2.06661e-06
-2.50724e-06
-7.02314e-07
3.89405e-06
-4.24886e-06
-7.13598e-07
4.29609e-06
-5.78104e-06
-6.90094e-07
3.86697e-06
-6.81433e-06
-6.84866e-07
2.77963e-06
-7.03188e-06
-7.10093e-07
1.01658e-06
-6.13365e-06
-7.39881e-07
-1.32673e-06
-4.0684e-06
-7.16275e-07
-3.6371e-06
-1.47981e-06
-5.46741e-07
-4.4736e-06
-1.28403e-07
-2.22972e-06
-1.25795e-06
-4.74221e-07
2.24105e-06
-3.46287e-06
-6.85662e-07
4.40133e-06
-5.80551e-06
-7.03346e-07
4.82931e-06
-7.80926e-06
-6.77292e-07
4.14997e-06
-9.09205e-06
-6.6213e-07
2.56983e-06
-9.26255e-06
-6.66175e-07
1.27046e-07
-7.9746e-06
-6.70859e-07
-3.0273e-06
-5.21806e-06
-6.34362e-07
-5.90355e-06
-1.86728e-06
-4.94193e-07
-6.57395e-06
-1.61896e-07
-3.05027e-06
-1.44827e-06
-2.74131e-07
2.22268e-06
-3.98431e-06
-4.07921e-07
4.46652e-06
-6.65516e-06
-4.20456e-07
4.87402e-06
-8.90453e-06
-4.03257e-07
4.04402e-06
-1.02994e-05
-3.8989e-07
2.19013e-06
-1.04144e-05
-3.85324e-07
-6.38415e-07
-8.88361e-06
-3.78317e-07
-4.17637e-06
-5.74308e-06
-3.52809e-07
-7.28737e-06
-2.011e-06
-2.79121e-07
-7.77331e-06
-1.05484e-07
-3.492e-06
-1.525e-06
-1.75746e-12
2.18568e-06
-4.20244e-06
-2.47593e-12
4.44022e-06
-7.01358e-06
-2.24654e-12
4.83247e-06
-9.36547e-06
-1.63639e-12
3.93921e-06
-1.08028e-05
-1.10624e-12
1.9738e-06
-1.08841e-05
-7.0554e-13
-1.00922e-06
-9.2423e-06
-4.42968e-13
-4.6942e-06
-5.93715e-06
-3.25171e-13
-7.88419e-06
-2.05371e-06
-3.02828e-13
-8.27522e-06
-2.86149e-13
-3.67148e-06
-1.525e-06
2.74127e-07
2.18568e-06
-4.20244e-06
4.07916e-07
4.44023e-06
-7.01358e-06
4.20452e-07
4.83248e-06
-9.36547e-06
4.03254e-07
3.93921e-06
-1.08028e-05
3.89888e-07
1.9738e-06
-1.08841e-05
3.85323e-07
-1.00922e-06
-9.2423e-06
3.78316e-07
-4.6942e-06
-5.93715e-06
3.52808e-07
-7.88419e-06
-2.05371e-06
2.7912e-07
-8.27522e-06
1.05483e-07
-3.67148e-06
-1.44827e-06
4.74216e-07
2.22268e-06
-3.98431e-06
6.85656e-07
4.46652e-06
-6.65516e-06
7.03342e-07
4.87402e-06
-8.90452e-06
6.77289e-07
4.04402e-06
-1.02994e-05
6.62128e-07
2.19013e-06
-1.04144e-05
6.66174e-07
-6.38414e-07
-8.88361e-06
6.70859e-07
-4.17637e-06
-5.74308e-06
6.34362e-07
-7.28737e-06
-2.011e-06
4.94192e-07
-7.77331e-06
1.61896e-07
-3.492e-06
-1.25795e-06
5.1268e-07
2.24105e-06
-3.46286e-06
7.02308e-07
4.40134e-06
-5.80551e-06
7.13594e-07
4.82931e-06
-7.80925e-06
6.90091e-07
4.14997e-06
-9.09205e-06
6.84865e-07
2.56983e-06
-9.26254e-06
7.10092e-07
1.27047e-07
-7.9746e-06
7.3988e-07
-3.0273e-06
-5.21806e-06
7.16275e-07
-5.90355e-06
-1.86728e-06
5.4674e-07
-6.57395e-06
1.28403e-07
-3.05027e-06
-8.99e-07
3.2009e-07
2.06662e-06
-2.50723e-06
3.97367e-07
3.89406e-06
-4.24886e-06
3.97634e-07
4.29609e-06
-5.78104e-06
3.85733e-07
3.86698e-06
-6.81433e-06
3.89147e-07
2.77963e-06
-7.03188e-06
4.17269e-07
1.01658e-06
-6.13365e-06
4.54781e-07
-1.32673e-06
-4.0684e-06
4.56321e-07
-3.6371e-06
-1.47981e-06
3.40371e-07
-4.4736e-06
2.74691e-08
-2.22972e-06
-3.40386e-07
1.24932e-06
-1.0152e-06
2.14887e-06
-1.77092e-06
2.36306e-06
-2.47121e-06
2.24211e-06
-2.98751e-06
1.85992e-06
-3.15472e-06
1.17276e-06
-2.79931e-06
1.74584e-07
-1.85995e-06
-9.54031e-07
-6.44008e-07
-1.59127e-06
-9.48611e-07
-4.41561e-07
-4.36449e-07
2.12732e-06
-1.26073e-06
-5.38886e-07
3.50692e-06
-2.16564e-06
-5.17608e-07
3.78557e-06
-3.04639e-06
-4.57963e-07
3.58083e-06
-3.7988e-06
-3.99634e-07
3.01196e-06
-4.23181e-06
-3.67813e-07
1.97358e-06
-4.04737e-06
-3.67552e-07
3.57694e-07
-2.98724e-06
-3.90778e-07
-1.62338e-06
-1.23188e-06
-3.28402e-07
-3.01822e-06
-1.11971e-08
-2.1693e-06
-1.19007e-06
-6.8498e-07
3.50521e-06
-3.21567e-06
-9.2333e-07
6.3041e-06
-5.38195e-06
-8.90646e-07
6.83541e-06
-7.35643e-06
-7.70511e-07
6.154e-06
-8.86453e-06
-6.36147e-07
4.52424e-06
-9.52234e-06
-5.26506e-07
1.83309e-06
-8.82922e-06
-4.63244e-07
-1.92416e-06
-6.39029e-06
-4.5946e-07
-6.00734e-06
-2.66481e-06
-4.09956e-07
-8.11753e-06
-8.32407e-08
-4.82248e-06
-1.68046e-06
-6.22676e-07
3.85921e-06
-4.49499e-06
-8.81215e-07
7.17374e-06
-7.44352e-06
-8.5196e-07
7.73915e-06
-1.00339e-05
-7.2369e-07
6.69353e-06
-1.18857e-05
-5.69627e-07
4.35507e-06
-1.25213e-05
-4.23238e-07
6.5938e-07
-1.13894e-05
-3.27275e-07
-4.29509e-06
-8.10137e-06
-3.07113e-07
-9.34397e-06
-3.32434e-06
-3.00961e-07
-1.146e-05
-1.05358e-07
-6.35249e-06
-1.94232e-06
-3.55549e-07
3.89788e-06
-5.19464e-06
-5.16632e-07
7.35425e-06
-8.56576e-06
-4.99773e-07
7.89296e-06
-1.1465e-05
-4.19096e-07
6.63863e-06
-1.34498e-05
-3.19433e-07
3.92474e-06
-1.40215e-05
-2.22335e-07
-2.67605e-07
-1.26004e-05
-1.51689e-07
-5.77304e-06
-8.856e-06
-1.3649e-07
-1.12024e-05
-3.58181e-06
-1.47474e-07
-1.3201e-05
-6.68822e-08
-7.11229e-06
-2.04753e-06
-1.20791e-12
3.87766e-06
-5.48495e-06
-1.87122e-12
7.36102e-06
-9.0334e-06
-1.82888e-12
7.88115e-06
-1.20565e-05
-1.42464e-12
6.54325e-06
-1.40869e-05
-1.05264e-12
3.68472e-06
-1.46123e-05
-7.49176e-13
-7.06101e-07
-1.30616e-05
-5.39093e-13
-6.39667e-06
-9.13017e-06
-4.2387e-13
-1.19521e-05
-3.66735e-06
-2.8546e-13
-1.38855e-05
-2.56594e-13
-7.4057e-06
-2.04753e-06
3.55547e-07
3.87766e-06
-5.48495e-06
5.16628e-07
7.36102e-06
-9.0334e-06
4.99769e-07
7.88115e-06
-1.20565e-05
4.19093e-07
6.54325e-06
-1.40869e-05
3.19431e-07
3.68472e-06
-1.46123e-05
2.22334e-07
-7.06101e-07
-1.30616e-05
1.51688e-07
-6.39667e-06
-9.13017e-06
1.3649e-07
-1.19521e-05
-3.66735e-06
1.47473e-07
-1.38855e-05
6.68818e-08
-7.4057e-06
-1.94232e-06
6.22673e-07
3.89788e-06
-5.19463e-06
8.81211e-07
7.35425e-06
-8.56576e-06
8.51956e-07
7.89296e-06
-1.1465e-05
7.23687e-07
6.63863e-06
-1.34498e-05
5.69625e-07
3.92474e-06
-1.40215e-05
4.23237e-07
-2.67604e-07
-1.26004e-05
3.27274e-07
-5.77304e-06
-8.856e-06
3.07113e-07
-1.12024e-05
-3.58181e-06
3.00961e-07
-1.3201e-05
1.05358e-07
-7.11229e-06
-1.68046e-06
6.84977e-07
3.85921e-06
-4.49499e-06
9.23326e-07
7.17375e-06
-7.44352e-06
8.90643e-07
7.73915e-06
-1.00339e-05
7.70509e-07
6.69353e-06
-1.18857e-05
6.36146e-07
4.35507e-06
-1.25213e-05
5.26505e-07
6.59381e-07
-1.13894e-05
4.63243e-07
-4.29509e-06
-8.10137e-06
4.59459e-07
-9.34396e-06
-3.32434e-06
4.09956e-07
-1.146e-05
8.32405e-08
-6.35249e-06
-1.19007e-06
4.36446e-07
3.50522e-06
-3.21567e-06
5.38884e-07
6.3041e-06
-5.38195e-06
5.17607e-07
6.83541e-06
-7.35643e-06
4.57962e-07
6.154e-06
-8.86453e-06
3.99633e-07
4.52424e-06
-9.52234e-06
3.67813e-07
1.83309e-06
-8.82922e-06
3.67552e-07
-1.92416e-06
-6.39029e-06
3.90778e-07
-6.00734e-06
-2.66481e-06
3.28402e-07
-8.11753e-06
1.1197e-08
-4.82248e-06
-4.41559e-07
2.12733e-06
-1.26073e-06
3.50693e-06
-2.16564e-06
3.78557e-06
-3.04639e-06
3.58083e-06
-3.7988e-06
3.01196e-06
-4.23181e-06
1.97358e-06
-4.04737e-06
3.57694e-07
-2.98724e-06
-1.62338e-06
-1.23188e-06
-3.01822e-06
-2.1693e-06
-5.72826e-07
-5.52733e-07
3.25288e-06
-1.50943e-06
-6.60951e-07
5.10448e-06
-2.50872e-06
-5.77647e-07
5.3625e-06
-3.53915e-06
-4.07137e-07
5.01839e-06
-4.57409e-06
-1.98738e-07
4.24564e-06
-5.44513e-06
6.66063e-09
2.83795e-06
-5.70276e-06
1.04609e-07
5.10714e-07
-4.74022e-06
4.04034e-08
-2.62633e-06
-2.34152e-06
-1.14715e-07
-5.30221e-06
-1.62264e-08
-4.49459e-06
-1.50758e-06
-8.5148e-07
5.31154e-06
-3.89022e-06
-1.10645e-06
9.13224e-06
-6.37613e-06
-9.60395e-07
9.70407e-06
-8.72329e-06
-6.31576e-07
8.7256e-06
-1.07533e-05
-2.17451e-07
6.57297e-06
-1.20763e-05
1.86798e-07
2.97597e-06
-1.19876e-05
4.35574e-07
-2.34387e-06
-9.56529e-06
3.52832e-07
-8.74208e-06
-4.63878e-06
3.18554e-08
-1.31906e-05
-4.63717e-08
-9.43112e-06
-2.10935e-06
-7.62272e-07
5.87935e-06
-5.43896e-06
-1.03728e-06
1.04342e-05
-8.84387e-06
-8.95023e-07
1.10787e-05
-1.18971e-05
-5.57646e-07
9.67282e-06
-1.43032e-05
-1.2538e-07
6.66913e-06
-1.55861e-05
3.01192e-07
1.82786e-06
-1.50224e-05
5.70585e-07
-4.99386e-06
-1.17094e-05
4.93912e-07
-1.2798e-05
-5.58771e-06
1.44046e-07
-1.76939e-05
-4.25539e-08
-1.1944e-05
-2.42449e-06
-4.30586e-07
5.99068e-06
-6.27027e-06
-6.00836e-07
1.07636e-05
-1.0156e-05
-5.16035e-07
1.13997e-05
-1.3535e-05
-3.09875e-07
9.76984e-06
-1.60491e-05
-4.40101e-08
6.35753e-06
-1.71944e-05
2.20157e-07
9.58746e-07
-1.63102e-05
3.81829e-07
-6.4685e-06
-1.25573e-05
3.31727e-07
-1.47931e-05
-5.94423e-06
1.1288e-07
-1.97829e-05
-2.18028e-08
-1.30773e-05
-2.54784e-06
-8.29034e-13
5.99492e-06
-6.60648e-06
-1.39939e-12
1.08188e-05
-1.06865e-05
-1.50459e-12
1.14451e-05
-1.41859e-05
-1.31313e-12
9.73285e-06
-1.67206e-05
-1.06442e-12
6.17539e-06
-1.77893e-05
-8.01352e-13
5.82683e-07
-1.67649e-05
-5.64307e-13
-7.03917e-06
-1.28498e-05
-3.84768e-13
-1.55355e-05
-6.06864e-06
-2.05311e-13
-2.05538e-05
-2.12472e-13
-1.34962e-05
-2.54784e-06
4.30584e-07
5.99492e-06
-6.60648e-06
6.00833e-07
1.08188e-05
-1.06865e-05
5.16032e-07
1.14451e-05
-1.41859e-05
3.09873e-07
9.73285e-06
-1.67206e-05
4.40081e-08
6.1754e-06
-1.77893e-05
-2.20159e-07
5.82683e-07
-1.67649e-05
-3.8183e-07
-7.03916e-06
-1.28498e-05
-3.31728e-07
-1.55355e-05
-6.06864e-06
-1.12881e-07
-2.05538e-05
2.18025e-08
-1.34962e-05
-2.42449e-06
7.6227e-07
5.99068e-06
-6.27027e-06
1.03728e-06
1.07636e-05
-1.0156e-05
8.95021e-07
1.13997e-05
-1.3535e-05
5.57644e-07
9.76984e-06
-1.60491e-05
1.25378e-07
6.35753e-06
-1.71944e-05
-3.01194e-07
9.58747e-07
-1.63102e-05
-5.70586e-07
-6.4685e-06
-1.25573e-05
-4.93912e-07
-1.47931e-05
-5.94423e-06
-1.44046e-07
-1.97829e-05
4.25536e-08
-1.30773e-05
-2.10934e-06
8.51478e-07
5.87935e-06
-5.43896e-06
1.10645e-06
1.04342e-05
-8.84387e-06
9.60393e-07
1.10787e-05
-1.18971e-05
6.31575e-07
9.67283e-06
-1.43032e-05
2.1745e-07
6.66913e-06
-1.55861e-05
-1.86799e-07
1.82787e-06
-1.50224e-05
-4.35575e-07
-4.99386e-06
-1.17094e-05
-3.52833e-07
-1.2798e-05
-5.58771e-06
-3.18556e-08
-1.76939e-05
4.63716e-08
-1.1944e-05
-1.50758e-06
5.52732e-07
5.31154e-06
-3.89022e-06
6.6095e-07
9.13224e-06
-6.37613e-06
5.77646e-07
9.70407e-06
-8.72329e-06
4.07136e-07
8.7256e-06
-1.07533e-05
1.98738e-07
6.57297e-06
-1.20763e-05
-6.66088e-09
2.97597e-06
-1.19876e-05
-1.04609e-07
-2.34387e-06
-9.56529e-06
-4.04035e-08
-8.74208e-06
-4.63878e-06
1.14715e-07
-1.31906e-05
1.62263e-08
-9.43112e-06
-5.72825e-07
3.25288e-06
-1.50943e-06
5.10448e-06
-2.50872e-06
5.36251e-06
-3.53915e-06
5.01839e-06
-4.57409e-06
4.24564e-06
-5.44513e-06
2.83795e-06
-5.70276e-06
5.10715e-07
-4.74022e-06
-2.62633e-06
-2.34152e-06
-5.30221e-06
-4.49459e-06
-8.10149e-07
-6.69331e-07
4.73236e-06
-1.80158e-06
-7.46425e-07
6.84233e-06
-2.74206e-06
-5.3171e-07
6.8347e-06
-3.77245e-06
-1.47895e-07
6.19668e-06
-5.03069e-06
3.41359e-07
5.16252e-06
-6.44375e-06
8.35037e-07
3.41598e-06
-7.47276e-06
1.13944e-06
4.00287e-07
-7.03718e-06
9.75476e-07
-4.03739e-06
-4.15926e-06
3.95041e-07
-8.57517e-06
-7.53171e-08
-8.57853e-06
-1.92315e-06
-1.00571e-06
7.57108e-06
-4.51512e-06
-1.22524e-06
1.2203e-05
-7.00803e-06
-8.6289e-07
1.25282e-05
-9.37398e-06
-1.7414e-07
1.11178e-05
-1.16523e-05
7.02198e-07
8.49045e-06
-1.36111e-05
1.57335e-06
4.19649e-06
-1.44812e-05
2.0873e-06
-2.42163e-06
-1.28019e-05
1.80702e-06
-1.12529e-05
-7.26331e-06
7.92412e-07
-1.91266e-05
-7.89095e-08
-1.66908e-05
-2.58917e-06
-8.83892e-07
8.3467e-06
-6.20602e-06
-1.13051e-06
1.39563e-05
-9.64009e-06
-7.86872e-07
1.44367e-05
-1.26524e-05
-1.11862e-07
1.26228e-05
-1.51639e-05
7.4065e-07
9.14217e-06
-1.68982e-05
1.56852e-06
3.567e-06
-1.71946e-05
2.01814e-06
-4.62831e-06
-1.47273e-05
1.70837e-06
-1.51666e-05
-8.23575e-06
7.47203e-07
-2.41402e-05
-4.56819e-08
-2.0213e-05
-2.91888e-06
-4.93218e-07
8.51889e-06
-7.07116e-06
-6.47727e-07
1.44331e-05
-1.09682e-05
-4.46783e-07
1.49566e-05
-1.42293e-05
-4.63206e-08
1.29653e-05
-1.6717e-05
4.56754e-07
9.12919e-06
-1.81758e-05
9.35654e-07
3.05042e-06
-1.80997e-05
1.17667e-06
-5.70312e-06
-1.53148e-05
9.74477e-07
-1.68442e-05
-8.561e-06
4.20206e-07
-2.62097e-05
-1.59682e-08
-2.1668e-05
-3.04036e-06
-6.08612e-13
8.54206e-06
-7.40308e-06
-1.06212e-12
1.45338e-05
-1.1475e-05
-1.27129e-12
1.50703e-05
-1.4812e-05
-1.21905e-12
1.30235e-05
-1.72571e-05
-1.0093e-12
9.07722e-06
-1.85827e-05
-7.29171e-13
2.84398e-06
-1.83662e-05
-4.58677e-13
-6.07904e-06
-1.54989e-05
-2.55839e-13
-1.74283e-05
-8.686e-06
-1.41932e-13
-2.69464e-05
-1.14911e-13
-2.21981e-05
-3.04036e-06
4.93217e-07
8.54206e-06
-7.40308e-06
6.47725e-07
1.45338e-05
-1.1475e-05
4.46781e-07
1.50703e-05
-1.4812e-05
4.63182e-08
1.30235e-05
-1.72571e-05
-4.56756e-07
9.07722e-06
-1.85827e-05
-9.35655e-07
2.84398e-06
-1.83662e-05
-1.17667e-06
-6.07903e-06
-1.54989e-05
-9.74478e-07
-1.74283e-05
-8.686e-06
-4.20206e-07
-2.69464e-05
1.5968e-08
-2.21981e-05
-2.91888e-06
8.83891e-07
8.51889e-06
-7.07116e-06
1.13051e-06
1.44331e-05
-1.09682e-05
7.8687e-07
1.49566e-05
-1.42293e-05
1.1186e-07
1.29654e-05
-1.6717e-05
-7.40652e-07
9.12919e-06
-1.81758e-05
-1.56852e-06
3.05042e-06
-1.80997e-05
-2.01814e-06
-5.70312e-06
-1.53148e-05
-1.70837e-06
-1.68442e-05
-8.561e-06
-7.47203e-07
-2.62097e-05
4.56817e-08
-2.1668e-05
-2.58917e-06
1.00571e-06
8.3467e-06
-6.20602e-06
1.22524e-06
1.39563e-05
-9.64009e-06
8.62889e-07
1.44367e-05
-1.26524e-05
1.74139e-07
1.26228e-05
-1.51639e-05
-7.02199e-07
9.14217e-06
-1.68982e-05
-1.57335e-06
3.567e-06
-1.71946e-05
-2.0873e-06
-4.62831e-06
-1.47273e-05
-1.80702e-06
-1.51666e-05
-8.23575e-06
-7.92412e-07
-2.41402e-05
7.89094e-08
-2.0213e-05
-1.92315e-06
6.6933e-07
7.57108e-06
-4.51512e-06
7.46425e-07
1.2203e-05
-7.00803e-06
5.31709e-07
1.25282e-05
-9.37398e-06
1.47894e-07
1.11178e-05
-1.16523e-05
-3.41359e-07
8.49045e-06
-1.36111e-05
-8.35037e-07
4.19649e-06
-1.44812e-05
-1.13944e-06
-2.42163e-06
-1.28019e-05
-9.75476e-07
-1.12529e-05
-7.26331e-06
-3.95042e-07
-1.91266e-05
7.5317e-08
-1.66908e-05
-8.10149e-07
4.73236e-06
-1.80158e-06
6.84234e-06
-2.74206e-06
6.8347e-06
-3.77245e-06
6.19668e-06
-5.03069e-06
5.16252e-06
-6.44375e-06
3.41598e-06
-7.47276e-06
4.00288e-07
-7.03718e-06
-4.03739e-06
-4.15926e-06
-8.57517e-06
-8.57853e-06
-1.37699e-06
-8.15862e-07
6.92521e-06
-2.2204e-06
-8.21689e-07
8.50743e-06
-2.73445e-06
-3.97322e-07
7.74607e-06
-3.37993e-06
2.86682e-07
6.55548e-06
-4.54659e-06
1.14204e-06
5.18713e-06
-6.37955e-06
2.04265e-06
3.20629e-06
-8.40828e-06
2.65638e-06
-2.27361e-07
-9.11316e-06
2.41539e-06
-5.74791e-06
-6.41218e-06
1.18089e-06
-1.2457e-05
-2.5236e-07
-1.47383e-05
-2.67334e-06
-1.1736e-06
1.06022e-05
-5.09029e-06
-1.31125e-06
1.51095e-05
-6.87389e-06
-6.43851e-07
1.45583e-05
-8.41162e-06
4.88807e-07
1.24534e-05
-1.01161e-05
1.89247e-06
9.44445e-06
-1.21144e-05
3.27678e-06
4.96072e-06
-1.3894e-05
4.07436e-06
-2.06004e-06
-1.37989e-05
3.52752e-06
-1.24601e-05
-9.28639e-06
1.59016e-06
-2.40484e-05
-3.44574e-07
-2.5885e-05
-3.31702e-06
-1.0021e-06
1.14922e-05
-6.70651e-06
-1.18504e-06
1.72196e-05
-9.26993e-06
-5.80463e-07
1.69368e-05
-1.11673e-05
4.72997e-07
1.4536e-05
-1.27116e-05
1.75929e-06
1.08196e-05
-1.40802e-05
2.96581e-06
5.24655e-06
-1.50341e-05
3.55128e-06
-3.15133e-06
-1.43322e-05
2.92432e-06
-1.52652e-05
-9.59093e-06
1.21609e-06
-2.85074e-05
-2.64827e-07
-2.98837e-05
-3.60006e-06
-5.49535e-07
1.16664e-05
-7.45908e-06
-6.70461e-07
1.77775e-05
-1.03721e-05
-3.26687e-07
1.76158e-05
-1.23487e-05
2.80295e-07
1.51347e-05
-1.36588e-05
1.01275e-06
1.11858e-05
-1.45653e-05
1.67696e-06
5.24574e-06
-1.50747e-05
1.95874e-06
-3.60119e-06
-1.42284e-05
1.55819e-06
-1.63244e-05
-9.63365e-06
6.15736e-07
-3.0204e-05
-1.27342e-07
-3.14391e-05
-3.69122e-06
-5.09927e-13
1.16837e-05
-7.71889e-06
-8.82743e-13
1.7891e-05
-1.07485e-05
-1.13145e-12
1.77733e-05
-1.27265e-05
-1.13824e-12
1.52818e-05
-1.39144e-05
-9.20276e-13
1.12779e-05
-1.46335e-05
-6.05806e-13
5.24002e-06
-1.50096e-05
-3.27248e-13
-3.74416e-06
-1.41836e-05
-1.18437e-13
-1.66961e-05
-9.68877e-06
-3.06925e-14
-3.08256e-05
3.72828e-16
-3.20142e-05
-3.69122e-06
5.49534e-07
1.16837e-05
-7.71889e-06
6.70459e-07
1.7891e-05
-1.07485e-05
3.26685e-07
1.77733e-05
-1.27265e-05
-2.80297e-07
1.52818e-05
-1.39144e-05
-1.01275e-06
1.12779e-05
-1.46335e-05
-1.67696e-06
5.24002e-06
-1.50096e-05
-1.95874e-06
-3.74416e-06
-1.41836e-05
-1.55819e-06
-1.66961e-05
-9.68877e-06
-6.15736e-07
-3.08256e-05
1.27342e-07
-3.20142e-05
-3.60006e-06
1.0021e-06
1.16664e-05
-7.45908e-06
1.18504e-06
1.77775e-05
-1.03721e-05
5.80462e-07
1.76158e-05
-1.23487e-05
-4.72999e-07
1.51347e-05
-1.36588e-05
-1.75929e-06
1.11858e-05
-1.45653e-05
-2.96581e-06
5.24574e-06
-1.50747e-05
-3.55128e-06
-3.60119e-06
-1.42284e-05
-2.92432e-06
-1.63244e-05
-9.63365e-06
-1.2161e-06
-3.0204e-05
2.64827e-07
-3.14391e-05
-3.31702e-06
1.1736e-06
1.14922e-05
-6.70651e-06
1.31125e-06
1.72196e-05
-9.26993e-06
6.4385e-07
1.69368e-05
-1.11673e-05
-4.88808e-07
1.4536e-05
-1.27116e-05
-1.89247e-06
1.08196e-05
-1.40802e-05
-3.27678e-06
5.24655e-06
-1.50341e-05
-4.07436e-06
-3.15133e-06
-1.43322e-05
-3.52752e-06
-1.52652e-05
-9.59093e-06
-1.59016e-06
-2.85074e-05
3.44574e-07
-2.98837e-05
-2.67334e-06
8.15861e-07
1.06022e-05
-5.09029e-06
8.21689e-07
1.51095e-05
-6.87389e-06
3.97321e-07
1.45583e-05
-8.41162e-06
-2.86683e-07
1.24534e-05
-1.01161e-05
-1.14204e-06
9.44445e-06
-1.21144e-05
-2.04265e-06
4.96072e-06
-1.3894e-05
-2.65638e-06
-2.06004e-06
-1.37989e-05
-2.41539e-06
-1.24601e-05
-9.28639e-06
-1.18089e-06
-2.40484e-05
2.5236e-07
-2.5885e-05
-1.37699e-06
6.92521e-06
-2.2204e-06
8.50743e-06
-2.73445e-06
7.74607e-06
-3.37993e-06
6.55548e-06
-4.54659e-06
5.18713e-06
-6.37955e-06
3.20629e-06
-8.40828e-06
-2.27361e-07
-9.11316e-06
-5.74791e-06
-6.41218e-06
-1.2457e-05
-1.47383e-05
-2.6135e-06
-1.09226e-06
1.0631e-05
-2.6154e-06
-1.05532e-06
9.56465e-06
-1.85605e-06
-4.28748e-07
7.41548e-06
-1.33812e-06
5.21443e-07
5.5161e-06
-1.72182e-06
1.66885e-06
3.90198e-06
-3.39339e-06
2.8987e-06
1.97916e-06
-6.27717e-06
3.86178e-06
-1.20537e-06
-8.68654e-06
3.66086e-06
-6.99939e-06
-7.64317e-06
1.72939e-06
-1.52298e-05
-8.978e-07
-2.14837e-05
-4.36588e-06
-1.47226e-06
1.5348e-05
-5.48405e-06
-1.59e-06
1.67624e-05
-5.01081e-06
-6.88436e-07
1.43447e-05
-4.16662e-06
7.36032e-07
1.13946e-05
-3.82028e-06
2.45159e-06
8.31537e-06
-4.53644e-06
4.15432e-06
4.42126e-06
-6.45099e-06
5.25491e-06
-1.53862e-06
-8.4974e-06
4.61924e-06
-1.1372e-05
-7.62719e-06
1.82133e-06
-2.50106e-05
-1.20608e-06
-3.32039e-05
-5.02929e-06
-1.19898e-06
1.62482e-05
-6.90284e-06
-1.37991e-06
1.88831e-05
-6.81596e-06
-6.09898e-07
1.67713e-05
-5.83348e-06
6.38204e-07
1.36514e-05
-4.77737e-06
2.11276e-06
1.01023e-05
-4.33247e-06
3.50203e-06
5.45395e-06
-4.99563e-06
4.25485e-06
-1.48812e-06
-6.54864e-06
3.51796e-06
-1.26109e-05
-6.35417e-06
1.22176e-06
-2.81023e-05
-8.66371e-07
-3.65776e-05
-5.25283e-06
-6.39044e-07
1.63593e-05
-7.45833e-06
-7.62167e-07
1.93653e-05
-7.54057e-06
-3.39372e-07
1.74275e-05
-6.45464e-06
3.54704e-07
1.43323e-05
-5.00316e-06
1.16635e-06
1.06807e-05
-3.96515e-06
1.90562e-06
5.80414e-06
-4.09881e-06
2.2586e-06
-1.47129e-06
-5.62396e-06
1.79882e-06
-1.30801e-05
-5.93642e-06
5.86432e-07
-2.92562e-05
-4.02341e-07
-3.78396e-05
-5.30322e-06
-5.18952e-13
1.63479e-05
-7.60808e-06
-8.35884e-13
1.94337e-05
-7.73273e-06
-1.0613e-12
1.75585e-05
-6.59127e-06
-1.05202e-12
1.4495e-05
-4.98499e-06
-8.31722e-13
1.08379e-05
-3.7478e-06
-5.2796e-13
5.90844e-06
-3.75609e-06
-2.59846e-13
-1.47727e-06
-5.37197e-06
-8.15441e-14
-1.32814e-05
-5.90041e-06
-6.43816e-15
-2.97107e-05
2.45519e-14
-3.8317e-05
-5.30322e-06
6.39043e-07
1.63479e-05
-7.60808e-06
7.62165e-07
1.94337e-05
-7.73273e-06
3.3937e-07
1.75585e-05
-6.59127e-06
-3.54706e-07
1.4495e-05
-4.98499e-06
-1.16635e-06
1.08379e-05
-3.7478e-06
-1.90562e-06
5.90844e-06
-3.75609e-06
-2.2586e-06
-1.47727e-06
-5.37197e-06
-1.79882e-06
-1.32814e-05
-5.90041e-06
-5.86432e-07
-2.97107e-05
4.02341e-07
-3.8317e-05
-5.25283e-06
1.19897e-06
1.63593e-05
-7.45833e-06
1.37991e-06
1.93653e-05
-7.54057e-06
6.09897e-07
1.74275e-05
-6.45464e-06
-6.38205e-07
1.43323e-05
-5.00316e-06
-2.11276e-06
1.06807e-05
-3.96515e-06
-3.50203e-06
5.80414e-06
-4.09881e-06
-4.25485e-06
-1.47129e-06
-5.62396e-06
-3.51796e-06
-1.30801e-05
-5.93642e-06
-1.22176e-06
-2.92562e-05
8.66371e-07
-3.78396e-05
-5.02929e-06
1.47225e-06
1.62482e-05
-6.90284e-06
1.59e-06
1.88831e-05
-6.81596e-06
6.88435e-07
1.67714e-05
-5.83348e-06
-7.36033e-07
1.36514e-05
-4.77737e-06
-2.45159e-06
1.01023e-05
-4.33247e-06
-4.15432e-06
5.45395e-06
-4.99563e-06
-5.25491e-06
-1.48812e-06
-6.54864e-06
-4.61924e-06
-1.26109e-05
-6.35417e-06
-1.82133e-06
-2.81023e-05
1.20608e-06
-3.65776e-05
-4.36588e-06
1.09225e-06
1.5348e-05
-5.48405e-06
1.05532e-06
1.67624e-05
-5.01081e-06
4.28747e-07
1.43447e-05
-4.16662e-06
-5.21444e-07
1.13946e-05
-3.82028e-06
-1.66885e-06
8.31537e-06
-4.53644e-06
-2.8987e-06
4.42126e-06
-6.45099e-06
-3.86178e-06
-1.53862e-06
-8.4974e-06
-3.66086e-06
-1.1372e-05
-7.62719e-06
-1.72939e-06
-2.50106e-05
8.978e-07
-3.32039e-05
-2.6135e-06
1.0631e-05
-2.6154e-06
9.56465e-06
-1.85605e-06
7.41548e-06
-1.33812e-06
5.5161e-06
-1.72182e-06
3.90198e-06
-3.39339e-06
1.97916e-06
-6.27717e-06
-1.20537e-06
-8.68654e-06
-6.99939e-06
-7.64317e-06
-1.52298e-05
-2.14837e-05
-2.74722e-06
-1.82045e-06
1.51986e-05
2.29e-07
-1.84946e-06
8.4379e-06
4.09741e-06
-1.10062e-06
4.64769e-06
6.88255e-06
-1.11996e-07
2.84296e-06
8.11657e-06
1.06218e-06
1.60578e-06
7.33262e-06
2.32876e-06
4.34352e-07
4.16142e-06
3.54478e-06
-1.57895e-06
-6.90249e-07
3.53612e-06
-5.68384e-06
-3.50293e-06
1.09431e-06
-1.35114e-05
-2.58001e-06
-2.24066e-05
-4.95366e-06
-2.13305e-06
2.06143e-05
-1.24324e-06
-2.48936e-06
1.36919e-05
4.35387e-06
-1.65097e-06
9.29797e-06
9.3253e-06
-3.11987e-07
6.62319e-06
1.29915e-05
1.26071e-06
4.45066e-06
1.46305e-05
2.90225e-06
2.20878e-06
1.33407e-05
4.27413e-06
-9.7821e-07
8.81638e-06
3.98851e-06
-7.30011e-06
2.87722e-06
9.35968e-07
-1.89131e-05
-2.57831e-06
-3.03284e-05
-5.7307e-06
-1.58863e-06
2.14345e-05
-2.25578e-06
-2.0052e-06
1.4924e-05
3.47474e-06
-1.38333e-06
1.07732e-05
9.09179e-06
-3.23827e-07
8.04616e-06
1.38559e-05
9.4437e-07
5.65456e-06
1.694e-05
2.22614e-06
3.04598e-06
1.70252e-05
3.19999e-06
-4.99182e-07
1.30457e-05
2.89436e-06
-7.53723e-06
5.40626e-06
6.49853e-07
-2.01768e-05
-1.58646e-06
-3.21631e-05
-5.89345e-06
-8.0788e-07
2.1472e-05
-2.554e-06
-1.0617e-06
1.50823e-05
3.1612e-06
-7.43172e-07
1.10722e-05
8.95555e-06
-1.88902e-07
8.40302e-06
1.41007e-05
4.81923e-07
5.99805e-06
1.76893e-05
1.14986e-06
3.2918e-06