/*--------------------------------*- C++ -*----------------------------------*\
  =========                 |
  \\      /  F ield         | OpenFOAM: The Open Source CFD Toolbox
   \\    /   O peration     | Website:  https://openfoam.org
    \\  /    A nd           | Version:  9
     \\/     M anipulation  |
\*---------------------------------------------------------------------------*/
FoamFile
{
    format      ascii;
    class       volScalarField;
    location    "0.41";
    object      p;
}
// * * * * * * * * * * * * * * * * * * * * * * * * * * * * * * * * * * * * * //

dimensions      [0 2 -2 0 0 0 0];

internalField   nonuniform List<scalar> 
1000
(
-1.65559e-06
-0.000419834
2.32896e-05
0.00123707
0.00324041
0.00588008
0.00871668
0.0110405
0.0121711
0.0113985
0.000170037
-0.00060632
-0.000251339
0.0010051
0.00316637
0.00606486
0.0092011
0.0117236
0.012808
0.0115271
0.00079695
-0.00020916
0.000113619
0.00145032
0.00381202
0.00701638
0.010485
0.0131607
0.014065
0.0121376
0.00144417
0.000295251
0.000604426
0.00201426
0.00454786
0.00801803
0.0117185
0.0144745
0.0151995
0.0127828
0.00184025
0.000627669
0.00093357
0.00238383
0.00500811
0.008612
0.0124372
0.0152252
0.0158468
0.0131797
0.00184013
0.000627562
0.000933491
0.00238377
0.00500806
0.00861196
0.0124372
0.0152252
0.0158467
0.0131797
0.00144378
0.000294926
0.000604185
0.00201408
0.00454772
0.00801791
0.0117184
0.0144745
0.0151994
0.0127827
0.00079618
-0.000209741
0.000113215
0.00145004
0.00381181
0.00701621
0.0104848
0.0131606
0.0140648
0.0121375
0.000168517
-0.000607266
-0.000251926
0.00100472
0.00316611
0.00606465
0.00920091
0.0117234
0.0128079
0.011527
-5.01264e-06
-0.000421268
2.25283e-05
0.00123662
0.00324011
0.00587986
0.00871649
0.0110403
0.0121709
0.0113984
0.000316559
-8.41164e-05
0.000376642
0.00148916
0.00329146
0.00569288
0.00833157
0.0105901
0.0117447
0.0107281
0.000827201
1.39941e-05
0.000407302
0.00150902
0.00333577
0.00581173
0.00857774
0.0109398
0.0120532
0.0104038
0.00182705
0.000682378
0.00102742
0.00213506
0.00402454
0.00662353
0.00959822
0.0120405
0.0129875
0.0106601
0.00271926
0.00134659
0.001652
0.0027674
0.00472223
0.00746216
0.0105844
0.01307
0.0138591
0.0110503
0.00323162
0.00174599
0.00203003
0.00314958
0.00514062
0.00796142
0.011161
0.0136626
0.0143624
0.011321
0.00323151
0.0017459
0.00202995
0.00314952
0.00514057
0.00796138
0.011161
0.0136626
0.0143624
0.011321
0.00271893
0.0013463
0.00165177
0.00276722
0.00472208
0.00746203
0.0105843
0.0130699
0.013859
0.0110502
0.00182644
0.000681876
0.00102705
0.00213479
0.00402433
0.00662335
0.00959806
0.0120403
0.0129874
0.01066
0.000826217
1.32612e-05
0.000406797
0.00150868
0.00333552
0.00581152
0.00857756
0.0109396
0.0120531
0.0104036
0.000315079
-8.50732e-05
0.000376032
0.00148875
0.00329117
0.00569265
0.00833139
0.0105899
0.0117445
0.0107279
-0.000961963
-0.00149412
-0.0011015
-0.00010582
0.00160586
0.0040854
0.00709607
0.00999409
0.0117511
0.010543
-0.00015318
-0.00124758
-0.000927741
5.56305e-05
0.00178869
0.00436059
0.00753687
0.0105866
0.0122786
0.00998348
0.00129251
-0.00027782
-4.3067e-05
0.000888615
0.00262306
0.00530326
0.00866665
0.0118325
0.0133452
0.0100748
0.00252866
0.000631038
0.000789476
0.00167288
0.00341129
0.00617922
0.00968027
0.0129023
0.014243
0.0103279
0.00322015
0.00116001
0.00127499
0.00212997
0.00387097
0.00668811
0.010253
0.0134912
0.0147346
0.0105236
0.00322006
0.00115993
0.00127492
0.00212991
0.00387092
0.00668807
0.010253
0.0134912
0.0147346
0.0105235
0.00252839
0.000630788
0.000789276
0.00167271
0.00341115
0.00617911
0.00968018
0.0129023
0.0142429
0.0103278
0.00129205
-0.000278228
-4.33868e-05
0.000888364
0.00262286
0.0053031
0.00866651
0.0118324
0.013345
0.0100746
-0.000153846
-0.00124813
-0.000928158
5.53213e-05
0.00178845
0.0043604
0.00753671
0.0105864
0.0122784
0.00998332
-0.000962797
-0.00149478
-0.00110198
-0.000106172
0.0016056
0.0040852
0.0070959
0.00999393
0.011751
0.0105428
-0.00418961
-0.00484214
-0.00454702
-0.00372055
-0.00211701
0.000579952
0.00440824
0.00877647
0.0121167
0.0112563
-0.00306248
-0.00443226
-0.00421666
-0.00339192
-0.00174412
0.00109525
0.00517936
0.00986268
0.0131433
0.0106414
-0.00112528
-0.00312604
-0.00306821
-0.00240484
-0.000881936
0.0019826
0.00622216
0.011134
0.0143257
0.0106656
0.000501598
-0.0019333
-0.00202017
-0.00151033
-0.000109086
0.0027172
0.00706747
0.0120977
0.0151794
0.0108272
0.00139979
-0.0012503
-0.00142032
-0.00100019
0.000332008
0.00314182
0.00752511
0.0125915
0.0156059
0.0109582
0.00139972
-0.00125037
-0.00142038
-0.00100024
0.000331966
0.00314179
0.00752509
0.0125915
0.0156059
0.0109581
0.000501388
-0.0019335
-0.00202033
-0.00151046
-0.000109192
0.00271711
0.0070674
0.0120976
0.0151793
0.0108272
-0.00112562
-0.00312636
-0.00306847
-0.00240505
-0.000882107
0.00198245
0.00622204
0.0111339
0.0143256
0.0106656
-0.00306295
-0.00443266
-0.00421699
-0.00339218
-0.00174434
0.00109509
0.00517923
0.00986255
0.0131432
0.0106413
-0.00419015
-0.00484258
-0.00454738
-0.00372083
-0.00211723
0.000579785
0.0044081
0.00877634
0.0121166
0.0112562
-0.0100585
-0.0106803
-0.0104303
-0.00982557
-0.00843902
-0.00552244
-0.000435113
0.00657229
0.0131755
0.0143085
-0.00861291
-0.0101098
-0.00996808
-0.00939307
-0.00799086
-0.00494744
0.000438449
0.00799254
0.0147105
0.0140543
-0.00621775
-0.00851094
-0.00867377
-0.00849579
-0.00752776
-0.00476707
0.000610931
0.00856581
0.0155601
0.0141352
-0.00423833
-0.00707546
-0.00750814
-0.00768037
-0.00707535
-0.00457978
0.000730248
0.00889459
0.0160306
0.0142559
-0.00315835
-0.00626334
-0.0068485
-0.0072208
-0.00682033
-0.00444833
0.000802949
0.00903673
0.0162211
0.0143283
-0.0031584
-0.00626339
-0.00684853
-0.00722084
-0.00682036
-0.00444834
0.000802931
0.00903671
0.0162211
0.0143283
-0.00423848
-0.0070756
-0.00750826
-0.00768047
-0.00707544
-0.00457986
0.000730192
0.00889455
0.0160306
0.0142559
-0.00621799
-0.00851116
-0.00867395
-0.00849595
-0.00752791
-0.0047672
0.000610838
0.00856574
0.0155601
0.0141351
-0.00861322
-0.0101101
-0.00996831
-0.00939329
-0.00799103
-0.00494757
0.000438341
0.00799246
0.0147104
0.0140542
-0.0100589
-0.0106806
-0.0104305
-0.00982579
-0.0084392
-0.00552258
-0.000435229
0.00657219
0.0131754
0.0143085
-0.0193197
-0.0194124
-0.0189039
-0.0184457
-0.0173582
-0.0142738
-0.00754493
0.00346607
0.0159652
0.0224811
-0.0175432
-0.018719
-0.0184226
-0.0181361
-0.0172616
-0.0144393
-0.00783663
0.00372141
0.0168588
0.0228516
-0.0147542
-0.0169097
-0.0171697
-0.0176963
-0.017774
-0.0158579
-0.00974945
0.00230232
0.0164534
0.0229657
-0.0125005
-0.0153063
-0.0160222
-0.0171763
-0.0180485
-0.0168228
-0.0110835
0.00122146
0.0159734
0.0229701
-0.0112897
-0.0144102
-0.0153762
-0.0168893
-0.0181382
-0.0172604
-0.0116967
0.00069677
0.0157009
0.0229433
-0.0112897
-0.0144102
-0.0153762
-0.0168893
-0.0181382
-0.0172604
-0.0116967
0.000696766
0.0157009
0.0229433
-0.0125006
-0.0153064
-0.0160223
-0.0171764
-0.0180486
-0.0168228
-0.0110835
0.00122145
0.0159734
0.0229701
-0.0147544
-0.0169098
-0.0171699
-0.0176964
-0.0177741
-0.0158579
-0.00974949
0.0023023
0.0164534
0.0229657
-0.0175434
-0.0187192
-0.0184228
-0.0181363
-0.0172618
-0.0144394
-0.00783669
0.00372137
0.0168588
0.0228516
-0.0193199
-0.0194126
-0.0189041
-0.0184459
-0.0173584
-0.0142739
-0.00754499
0.00346603
0.0159651
0.0224811
-0.0332349
-0.0311341
-0.0294389
-0.0286566
-0.0277446
-0.0245939
-0.0162201
-8.92372e-06
0.0215432
0.0400537
-0.030936
-0.0302704
-0.0290609
-0.0288119
-0.0286567
-0.0266239
-0.0194744
-0.00336208
0.0193722
0.040213
-0.027716
-0.0282063
-0.027895
-0.028981
-0.0305052
-0.0302902
-0.0244873
-0.00807067
0.0164784
0.0400994
-0.0252217
-0.0264371
-0.0267931
-0.0288672
-0.0315961
-0.0325822
-0.0275809
-0.0109551
0.0146603
0.0399865
-0.0239149
-0.0254692
-0.0261697
-0.0287358
-0.0320321
-0.0335625
-0.0289102
-0.0122021
0.0138621
0.039912
-0.0239149
-0.0254692
-0.0261697
-0.0287359
-0.0320321
-0.0335625
-0.0289102
-0.0122021
0.0138621
0.039912
-0.0252218
-0.0264372
-0.0267932
-0.0288672
-0.0315961
-0.0325822
-0.0275809
-0.0109551
0.0146603
0.0399865
-0.0277161
-0.0282064
-0.0278951
-0.0289811
-0.0305053
-0.0302902
-0.0244873
-0.00807065
0.0164784
0.0400994
-0.0309362
-0.0302706
-0.029061
-0.0288121
-0.0286568
-0.026624
-0.0194745
-0.00336208
0.0193722
0.040213
-0.0332351
-0.0311343
-0.0294391
-0.0286568
-0.0277447
-0.024594
-0.0162201
-8.9338e-06
0.0215433
0.0400538
-0.0558344
-0.0455826
-0.0406293
-0.038245
-0.0368944
-0.0334451
-0.0238739
-0.00175151
0.0312412
0.0738681
-0.0523639
-0.0440954
-0.040072
-0.0389704
-0.039176
-0.0379346
-0.0312501
-0.0106679
0.0235695
0.0742591
-0.0481746
-0.0412026
-0.0383617
-0.0391823
-0.0417543
-0.0430216
-0.0384765
-0.0178481
0.0187861
0.0755486
-0.0451766
-0.038935
-0.0368794
-0.038951
-0.0430657
-0.0458249
-0.0423806
-0.0214427
0.0166935
0.0767718
-0.0436811
-0.0377617
-0.0360912
-0.0387471
-0.0435467
-0.046937
-0.0439387
-0.0228265
0.0159826
0.0773519
-0.0436812
-0.0377617
-0.0360912
-0.0387471
-0.0435467
-0.046937
-0.0439387
-0.0228265
0.0159826
0.0773519
-0.0451767
-0.0389351
-0.0368795
-0.0389511
-0.0430657
-0.045825
-0.0423806
-0.0214427
0.0166936
0.0767719
-0.0481748
-0.0412027
-0.0383618
-0.0391824
-0.0417544
-0.0430216
-0.0384765
-0.017848
0.0187861
0.0755486
-0.0523641
-0.0440955
-0.0400721
-0.0389706
-0.0391761
-0.0379347
-0.0312501
-0.0106679
0.0235696
0.0742591
-0.0558346
-0.0455828
-0.0406295
-0.0382451
-0.0368945
-0.0334451
-0.0238739
-0.0017515
0.0312412
0.0738682
-0.0877392
-0.0602405
-0.0508775
-0.044887
-0.0418755
-0.0373239
-0.0250638
0.00547599
0.0519336
0.15088
-0.079995
-0.0564984
-0.0495611
-0.0459795
-0.0452617
-0.0434377
-0.0349543
-0.00541136
0.0453652
0.162318
-0.0736505
-0.0518533
-0.0464847
-0.0453449
-0.0475263
-0.0484282
-0.0421287
-0.0110275
0.0460701
0.171106
-0.0697612
-0.0486778
-0.0441671
-0.0445223
-0.0484637
-0.0509453
-0.0455499
-0.0131421
0.0471658
0.176618
-0.0679909
-0.0471528
-0.0430286
-0.044055
-0.048768
-0.0519193
-0.0468487
-0.0138909
0.0477626
0.178994
-0.0679909
-0.0471528
-0.0430286
-0.0440551
-0.048768
-0.0519193
-0.0468487
-0.0138909
0.0477627
0.178994
-0.0697613
-0.0486779
-0.0441672
-0.0445224
-0.0484637
-0.0509454
-0.0455499
-0.013142
0.0471658
0.176618
-0.0736506
-0.0518534
-0.0464848
-0.045345
-0.0475264
-0.0484283
-0.0421287
-0.0110274
0.0460701
0.171106
-0.0799952
-0.0564985
-0.0495613
-0.0459796
-0.0452617
-0.0434377
-0.0349543
-0.00541132
0.0453652
0.162318
-0.0877394
-0.0602407
-0.0508777
-0.0448871
-0.0418756
-0.037324
-0.0250638
0.00547602
0.0519337
0.15088
-0.198286
-0.0732379
-0.0481071
-0.0392915
-0.034694
-0.0279098
-0.0112457
0.033467
0.119153
0.3245
-0.18611
-0.0608148
-0.0405784
-0.036062
-0.0350011
-0.0314794
-0.0173153
0.0301012
0.129395
0.358858
-0.177409
-0.0522077
-0.0342089
-0.0326733
-0.0347512
-0.0336697
-0.0205622
0.0298795
0.138443
0.379482
-0.17243
-0.047342
-0.0303016
-0.0304387
-0.0343767
-0.0346919
-0.0219948
0.0300833
0.142835
0.38935
-0.170253
-0.0452319
-0.0285695
-0.0294205
-0.0341774
-0.0351284
-0.0226071
0.0301335
0.144473
0.393081
-0.170253
-0.0452319
-0.0285695
-0.0294205
-0.0341774
-0.0351284
-0.0226071
0.0301335
0.144473
0.393081
-0.17243
-0.0473421
-0.0303017
-0.0304388
-0.0343767
-0.0346919
-0.0219948
0.0300834
0.142835
0.38935
-0.177409
-0.0522078
-0.034209
-0.0326734
-0.0347512
-0.0336697
-0.0205622
0.0298795
0.138443
0.379482
-0.18611
-0.060815
-0.0405785
-0.036062
-0.0350012
-0.0314794
-0.0173153
0.0301013
0.129395
0.358858
-0.198286
-0.0732381
-0.0481072
-0.0392916
-0.034694
-0.0279099
-0.0112457
0.0334671
0.119153
0.3245
)
;

boundaryField
{
    top
    {
        type            zeroGradient;
    }
    others
    {
        type            zeroGradient;
    }
}


// ************************************************************************* //
