/*--------------------------------*- C++ -*----------------------------------*\
  =========                 |
  \\      /  F ield         | OpenFOAM: The Open Source CFD Toolbox
   \\    /   O peration     | Website:  https://openfoam.org
    \\  /    A nd           | Version:  9
     \\/     M anipulation  |
\*---------------------------------------------------------------------------*/
FoamFile
{
    format      ascii;
    class       volVectorField;
    location    "0.41";
    object      U;
}
// * * * * * * * * * * * * * * * * * * * * * * * * * * * * * * * * * * * * * //

dimensions      [0 1 -1 0 0 0 0];

internalField   nonuniform List<vector> 
1000
(
(-6.31282e-05 -0.00041136 0.000360392)
(-0.00162552 -0.000333266 0.00104604)
(-0.00479588 -0.000282093 0.00132389)
(-0.00803152 -0.000375969 0.00138956)
(-0.0107022 -0.000638917 0.00128634)
(-0.0119966 -0.00103832 0.00095031)
(-0.0111006 -0.0014468 0.000370568)
(-0.00774251 -0.00161929 -0.000257381)
(-0.00271618 -0.00131006 -0.000431619)
(2.01424e-05 -0.00038335 0.00020193)
(-0.000287416 -0.00137848 0.000602012)
(-0.00362142 -0.00157161 0.00213949)
(-0.0100205 -0.00158921 0.0027331)
(-0.0163975 -0.00186154 0.00270883)
(-0.0214558 -0.00249811 0.00218365)
(-0.0237026 -0.00342096 0.00108687)
(-0.0217016 -0.00431138 -0.000488545)
(-0.0150586 -0.00458038 -0.00191189)
(-0.0054731 -0.00369147 -0.00195832)
(-0.0001507 -0.00134564 4.5484e-06)
(-0.000442108 -0.00197463 0.000366107)
(-0.0048667 -0.00264947 0.00222101)
(-0.0131845 -0.00283606 0.00293469)
(-0.0213667 -0.00318384 0.0027981)
(-0.0277257 -0.00387858 0.00193841)
(-0.0303666 -0.00483917 0.000293232)
(-0.0274811 -0.00566964 -0.00195042)
(-0.0186699 -0.00577826 -0.00375648)
(-0.00633626 -0.00465072 -0.00340848)
(0.000113209 -0.0019728 -0.000250268)
(-0.000518313 -0.00162391 6.17998e-05)
(-0.00556865 -0.00230263 0.00197592)
(-0.0150097 -0.00250377 0.00272048)
(-0.0242427 -0.00277312 0.00251006)
(-0.0313404 -0.00327224 0.00145088)
(-0.0341148 -0.0039418 -0.00052115)
(-0.0305519 -0.00446735 -0.00314255)
(-0.0203486 -0.00446184 -0.00510165)
(-0.00639275 -0.00359484 -0.00438362)
(0.000474765 -0.00162803 -0.00040663)
(-0.000548681 -0.000617454 -0.000120008)
(-0.00588105 -0.000894316 0.00178774)
(-0.0158373 -0.000977788 0.00253807)
(-0.0255521 -0.00107619 0.00229561)
(-0.0329802 -0.00125156 0.00114785)
(-0.0357931 -0.00148195 -0.000974506)
(-0.0318763 -0.00165938 -0.00375277)
(-0.02099 -0.00164401 -0.00575676)
(-0.00628823 -0.00132684 -0.00483652)
(0.00069929 -0.000618546 -0.00047209)
(-0.000548681 0.000617503 -0.000120008)
(-0.00588105 0.000894353 0.00178774)
(-0.0158373 0.000977815 0.00253807)
(-0.0255521 0.00107621 0.00229561)
(-0.0329802 0.00125157 0.00114785)
(-0.0357931 0.00148197 -0.000974507)
(-0.0318763 0.00165939 -0.00375277)
(-0.02099 0.00164402 -0.00575676)
(-0.00628823 0.00132685 -0.00483652)
(0.00069929 0.000618551 -0.00047209)
(-0.000518312 0.00162397 6.18021e-05)
(-0.00556866 0.00230267 0.00197592)
(-0.0150097 0.00250379 0.00272049)
(-0.0242427 0.00277314 0.00251006)
(-0.0313404 0.00327225 0.00145088)
(-0.0341148 0.00394182 -0.000521151)
(-0.0305519 0.00446736 -0.00314255)
(-0.0203486 0.00446184 -0.00510165)
(-0.00639275 0.00359485 -0.00438362)
(0.000474765 0.00162804 -0.000406631)
(-0.000442105 0.0019747 0.000366113)
(-0.0048667 0.00264951 0.00222102)
(-0.0131845 0.00283609 0.00293469)
(-0.0213668 0.00318386 0.0027981)
(-0.0277258 0.00387859 0.00193841)
(-0.0303666 0.00483918 0.000293231)
(-0.0274811 0.00566964 -0.00195042)
(-0.0186699 0.00577826 -0.00375648)
(-0.00633626 0.00465072 -0.00340848)
(0.000113209 0.0019728 -0.000250269)
(-0.000287407 0.00137855 0.000602023)
(-0.00362144 0.00157164 0.0021395)
(-0.0100205 0.00158923 0.0027331)
(-0.0163975 0.00186155 0.00270883)
(-0.0214558 0.00249812 0.00218365)
(-0.0237026 0.00342097 0.00108687)
(-0.0217016 0.00431138 -0.000488547)
(-0.0150586 0.00458039 -0.00191189)
(-0.0054731 0.00369147 -0.00195832)
(-0.0001507 0.00134564 4.5467e-06)
(-6.31429e-05 0.000411381 0.00036038)
(-0.00162559 0.000333264 0.00104605)
(-0.00479595 0.000282097 0.00132388)
(-0.00803156 0.000375973 0.00138956)
(-0.0107023 0.000638921 0.00128634)
(-0.0119966 0.00103832 0.000950308)
(-0.0111006 0.0014468 0.000370567)
(-0.00774251 0.00161929 -0.000257382)
(-0.00271618 0.00131007 -0.00043162)
(2.01427e-05 0.000383351 0.000201929)
(-0.000685069 -0.0011783 0.00320335)
(-0.00423974 -0.00142285 0.00631532)
(-0.0102 -0.00143058 0.00735397)
(-0.016113 -0.00148263 0.00728372)
(-0.0209196 -0.00167115 0.00629009)
(-0.0232928 -0.00200059 0.00420019)
(-0.0218769 -0.00234662 0.00109197)
(-0.0160132 -0.00239235 -0.00210919)
(-0.00674582 -0.00176157 -0.00337821)
(-0.000752661 -0.00021487 -0.000987095)
(-0.00196551 -0.00331445 0.00528174)
(-0.0104843 -0.00443271 0.0118359)
(-0.0239623 -0.00461895 0.0139058)
(-0.0369082 -0.00480767 0.0130722)
(-0.04686 -0.00530506 0.00981439)
(-0.0511804 -0.00609411 0.00405004)
(-0.0474009 -0.00684667 -0.00353329)
(-0.0345662 -0.00677108 -0.0102599)
(-0.0152179 -0.00508572 -0.0112725)
(-0.00220863 -0.00128744 -0.00340006)
(-0.00281258 -0.00419029 0.0051878)
(-0.0145911 -0.00609199 0.0129785)
(-0.0328611 -0.00650674 0.0153206)
(-0.0500325 -0.00677158 0.0137096)
(-0.0627898 -0.00733391 0.00867297)
(-0.0678041 -0.00815709 0.000256025)
(-0.0620521 -0.00880856 -0.0102113)
(-0.0446028 -0.008498 -0.0186262)
(-0.0192109 -0.00651022 -0.0182023)
(-0.00259585 -0.00230864 -0.00540453)
(-0.00326717 -0.0032629 0.00455942)
(-0.01694 -0.00493905 0.0125943)
(-0.0380315 -0.00533048 0.0149155)
(-0.0576132 -0.00553723 0.0127613)
(-0.0718683 -0.00593366 0.00660877)
(-0.077036 -0.00648989 -0.00339489)
(-0.0698319 -0.00683636 -0.0154899)
(-0.0495387 -0.00650477 -0.0245853)
(-0.0207306 -0.00504051 -0.0227876)
(-0.00248359 -0.00201156 -0.00664513)
(-0.00345366 -0.00121221 0.00412359)
(-0.0179746 -0.00186595 0.012142)
(-0.0403556 -0.00202201 0.0144117)
(-0.0610223 -0.00209654 0.0119984)
(-0.0759223 -0.00223225 0.00533189)
(-0.0810846 -0.00241864 -0.00538679)
(-0.0731305 -0.00251969 -0.018165)
(-0.0514973 -0.00238313 -0.0274663)
(-0.0211799 -0.00185864 -0.0249201)
(-0.00233595 -0.000779498 -0.00719696)
(-0.00345366 0.00121225 0.00412359)
(-0.0179746 0.00186598 0.012142)
(-0.0403556 0.00202203 0.0144117)
(-0.0610223 0.00209655 0.0119984)
(-0.0759223 0.00223226 0.00533189)
(-0.0810846 0.00241865 -0.00538679)
(-0.0731305 0.0025197 -0.018165)
(-0.0514973 0.00238313 -0.0274663)
(-0.0211799 0.00185864 -0.0249201)
(-0.00233595 0.000779504 -0.00719696)
(-0.00326717 0.00326294 0.00455942)
(-0.01694 0.00493907 0.0125943)
(-0.0380315 0.00533049 0.0149155)
(-0.0576132 0.00553724 0.0127613)
(-0.0718683 0.00593367 0.00660876)
(-0.077036 0.0064899 -0.0033949)
(-0.0698319 0.00683637 -0.0154899)
(-0.0495387 0.00650477 -0.0245853)
(-0.0207306 0.00504051 -0.0227876)
(-0.00248359 0.00201156 -0.00664513)
(-0.00281258 0.00419034 0.00518779)
(-0.0145911 0.00609201 0.0129785)
(-0.0328611 0.00650675 0.0153206)
(-0.0500325 0.00677159 0.0137096)
(-0.0627898 0.00733392 0.00867297)
(-0.0678041 0.0081571 0.000256023)
(-0.0620521 0.00880856 -0.0102113)
(-0.0446028 0.008498 -0.0186262)
(-0.0192109 0.00651023 -0.0182023)
(-0.00259585 0.00230865 -0.00540454)
(-0.0019655 0.00331448 0.00528173)
(-0.0104843 0.00443272 0.0118359)
(-0.0239623 0.00461895 0.0139058)
(-0.0369082 0.00480768 0.0130722)
(-0.04686 0.00530507 0.00981439)
(-0.0511804 0.00609412 0.00405004)
(-0.0474009 0.00684668 -0.0035333)
(-0.0345662 0.00677108 -0.0102599)
(-0.0152179 0.00508572 -0.0112725)
(-0.00220863 0.00128744 -0.00340006)
(-0.000685065 0.0011783 0.00320329)
(-0.00423976 0.00142284 0.0063153)
(-0.0102001 0.00143058 0.00735396)
(-0.016113 0.00148263 0.00728371)
(-0.0209196 0.00167116 0.00629008)
(-0.0232928 0.00200059 0.00420019)
(-0.0218769 0.00234662 0.00109197)
(-0.0160132 0.00239235 -0.00210919)
(-0.00674582 0.00176157 -0.0033782)
(-0.000752661 0.000214871 -0.000987095)
(-0.00114541 -0.00186999 0.00915621)
(-0.0061077 -0.00236542 0.0162245)
(-0.0139384 -0.00236798 0.0182478)
(-0.0216883 -0.00229349 0.0176776)
(-0.0283249 -0.00230909 0.0149615)
(-0.0323313 -0.00249027 0.00975038)
(-0.0317536 -0.00275091 0.00214642)
(-0.0249376 -0.00278655 -0.0059585)
(-0.0121333 -0.00204374 -0.0100583)
(-0.00215857 -1.31283e-05 -0.0051999)
(-0.00335627 -0.00504331 0.0151296)
(-0.0159643 -0.0068562 0.02958)
(-0.03474 -0.00698297 0.0333979)
(-0.0525828 -0.00675966 0.0306526)
(-0.0667566 -0.00670215 0.0224497)
(-0.0740879 -0.00696119 0.00869147)
(-0.0710432 -0.00729963 -0.00924121)
(-0.0550148 -0.00710181 -0.0258991)
(-0.027316 -0.00531748 -0.0304369)
(-0.00529882 -0.000849016 -0.0133149)
(-0.00488189 -0.0061246 0.0161203)
(-0.0227454 -0.00890342 0.0331872)
(-0.0488006 -0.00919054 0.0372665)
(-0.0728748 -0.00884814 0.0324542)
(-0.0911384 -0.00858014 0.0200294)
(-0.0995177 -0.00852994 0.000265355)
(-0.0938819 -0.00847221 -0.0240661)
(-0.0715354 -0.00795118 -0.0447921)
(-0.034916 -0.00613332 -0.0469301)
(-0.00650544 -0.0018388 -0.0191621)
(-0.00573664 -0.00465074 0.0156427)
(-0.0267069 -0.00700549 0.0332822)
(-0.0570742 -0.00727295 0.0371167)
(-0.0846548 -0.00696126 0.0308677)
(-0.104966 -0.00663592 0.0158114)
(-0.113475 -0.0063939 -0.0074463)
(-0.105837 -0.006116 -0.0352185)
(-0.0796154 -0.00561928 -0.057559)
(-0.0381309 -0.0044293 -0.0572899)
(-0.00674728 -0.00162461 -0.0226104)
(-0.00609723 -0.00170603 0.0151564)
(-0.028462 -0.00260906 0.0328069)
(-0.0607896 -0.00271426 0.0364376)
(-0.0899181 -0.00258809 0.0295014)
(-0.111058 -0.00244352 0.0132476)
(-0.119473 -0.00231632 -0.0115315)
(-0.110787 -0.00217126 -0.0406918)
(-0.0827832 -0.00197546 -0.0635174)
(-0.0392352 -0.00157767 -0.0619498)
(-0.00673439 -0.000630204 -0.024108)
(-0.00609723 0.00170606 0.0151564)
(-0.028462 0.00260908 0.0328069)
(-0.0607896 0.00271427 0.0364376)
(-0.0899181 0.00258809 0.0295014)
(-0.111058 0.00244353 0.0132476)
(-0.119473 0.00231633 -0.0115315)
(-0.110787 0.00217127 -0.0406918)
(-0.0827832 0.00197547 -0.0635174)
(-0.0392352 0.00157768 -0.0619498)
(-0.00673439 0.000630209 -0.024108)
(-0.00573664 0.00465077 0.0156427)
(-0.0267069 0.0070055 0.0332822)
(-0.0570742 0.00727295 0.0371167)
(-0.0846548 0.00696126 0.0308677)
(-0.104966 0.00663593 0.0158114)
(-0.113475 0.00639391 -0.0074463)
(-0.105837 0.00611601 -0.0352185)
(-0.0796154 0.00561929 -0.057559)
(-0.0381309 0.0044293 -0.0572899)
(-0.00674728 0.00162462 -0.0226104)
(-0.00488188 0.00612463 0.0161203)
(-0.0227454 0.00890343 0.0331872)
(-0.0488006 0.00919054 0.0372665)
(-0.0728748 0.00884814 0.0324542)
(-0.0911384 0.00858014 0.0200294)
(-0.0995177 0.00852994 0.000265355)
(-0.0938819 0.00847221 -0.0240661)
(-0.0715354 0.00795118 -0.0447921)
(-0.034916 0.00613332 -0.0469301)
(-0.00650544 0.0018388 -0.0191621)
(-0.00335627 0.00504332 0.0151295)
(-0.0159643 0.0068562 0.02958)
(-0.03474 0.00698297 0.0333979)
(-0.0525828 0.00675967 0.0306526)
(-0.0667566 0.00670216 0.0224497)
(-0.0740879 0.00696119 0.00869147)
(-0.0710432 0.00729963 -0.00924121)
(-0.0550148 0.00710181 -0.0258991)
(-0.027316 0.00531749 -0.0304369)
(-0.00529882 0.000849018 -0.0133149)
(-0.00114541 0.00186999 0.00915615)
(-0.00610771 0.00236542 0.0162245)
(-0.0139384 0.00236798 0.0182477)
(-0.0216883 0.00229349 0.0176776)
(-0.0283249 0.00230909 0.0149615)
(-0.0323313 0.00249027 0.00975037)
(-0.0317536 0.00275091 0.00214642)
(-0.0249376 0.00278655 -0.0059585)
(-0.0121333 0.00204374 -0.0100583)
(-0.00215857 1.31286e-05 -0.0051999)
(-0.00157026 -0.00254849 0.0171588)
(-0.00768149 -0.00321197 0.0290043)
(-0.0169394 -0.00307763 0.031952)
(-0.0262486 -0.00269533 0.0306983)
(-0.0350068 -0.00231762 0.0260657)
(-0.0417898 -0.00213747 0.0172648)
(-0.0439117 -0.00223143 0.00388843)
(-0.037866 -0.00247178 -0.0115744)
(-0.021677 -0.00204865 -0.0212573)
(-0.0052804 9.05218e-05 -0.0138066)
(-0.00461564 -0.00673186 0.0283851)
(-0.0207198 -0.00900191 0.0524168)
(-0.0438888 -0.00866522 0.0578896)
(-0.0660343 -0.00743044 0.0527204)
(-0.0848738 -0.00604296 0.0388316)
(-0.0971753 -0.00497599 0.015616)
(-0.0981257 -0.00448801 -0.015774)
(-0.0820421 -0.00463483 -0.0475441)
(-0.0466587 -0.00407532 -0.0607074)
(-0.0113425 -0.000364552 -0.032273)
(-0.00674531 -0.00799801 0.0310869)
(-0.0298802 -0.0113317 0.059475)
(-0.0625069 -0.0109238 0.0651558)
(-0.0925928 -0.00909928 0.0564718)
(-0.116645 -0.00684914 0.0357397)
(-0.130433 -0.00475469 0.00292056)
(-0.128549 -0.0033902 -0.0390005)
(-0.105119 -0.00325123 -0.0783478)
(-0.0587722 -0.0033706 -0.0894919)
(-0.0138529 -0.000997029 -0.0440528)
(-0.00795209 -0.00597897 0.0311361)
(-0.0352588 -0.00874141 0.0605988)
(-0.0734554 -0.00841532 0.0657893)
(-0.107865 -0.00685757 0.054745)
(-0.134249 -0.00485935 0.0299252)
(-0.147978 -0.00289022 -0.00814787)
(-0.143609 -0.00156407 -0.0551737)
(-0.115705 -0.00142898 -0.0973756)
(-0.0638521 -0.00189049 -0.10599)
(-0.0146769 -0.000851513 -0.0504258)
(-0.00846251 -0.00217473 0.0307915)
(-0.0376304 -0.00322255 0.0603765)
(-0.0783234 -0.00309805 0.0652108)
(-0.114574 -0.00249445 0.05307)
(-0.141797 -0.00171082 0.0264718)
(-0.155219 -0.000929896 -0.0137467)
(-0.14952 -0.000395936 -0.0626623)
(-0.119644 -0.000350659 -0.105693)
(-0.0656382 -0.000583402 -0.112943)
(-0.0149054 -0.000322679 -0.0530371)
(-0.00846251 0.00217476 0.0307915)
(-0.0376304 0.00322256 0.0603765)
(-0.0783234 0.00309806 0.0652108)
(-0.114574 0.00249445 0.05307)
(-0.141797 0.00171082 0.0264718)
(-0.155219 0.000929899 -0.0137467)
(-0.14952 0.000395939 -0.0626623)
(-0.119644 0.000350663 -0.105693)
(-0.0656382 0.000583406 -0.112943)
(-0.0149054 0.000322683 -0.0530371)
(-0.00795209 0.00597899 0.0311361)
(-0.0352588 0.00874142 0.0605988)
(-0.0734554 0.00841532 0.0657893)
(-0.107865 0.00685758 0.054745)
(-0.134249 0.00485936 0.0299252)
(-0.147978 0.00289022 -0.00814787)
(-0.143609 0.00156407 -0.0551737)
(-0.115705 0.00142898 -0.0973756)
(-0.0638521 0.00189049 -0.10599)
(-0.0146769 0.000851517 -0.0504258)
(-0.00674531 0.00799803 0.0310869)
(-0.0298802 0.0113317 0.059475)
(-0.0625069 0.0109238 0.0651558)
(-0.0925928 0.00909929 0.0564718)
(-0.116645 0.00684914 0.0357397)
(-0.130433 0.00475469 0.00292056)
(-0.128549 0.00339021 -0.0390005)
(-0.105119 0.00325124 -0.0783478)
(-0.0587722 0.0033706 -0.0894919)
(-0.0138529 0.000997032 -0.0440528)
(-0.00461563 0.00673187 0.0283851)
(-0.0207198 0.00900191 0.0524168)
(-0.0438888 0.00866522 0.0578896)
(-0.0660343 0.00743044 0.0527204)
(-0.0848738 0.00604296 0.0388316)
(-0.0971753 0.00497599 0.015616)
(-0.0981257 0.00448801 -0.015774)
(-0.0820421 0.00463483 -0.0475441)
(-0.0466587 0.00407532 -0.0607074)
(-0.0113425 0.000364553 -0.032273)
(-0.00157027 0.00254849 0.0171587)
(-0.00768149 0.00321197 0.0290042)
(-0.0169394 0.00307763 0.031952)
(-0.0262486 0.00269533 0.0306983)
(-0.0350068 0.00231762 0.0260657)
(-0.0417898 0.00213747 0.0172648)
(-0.0439117 0.00223143 0.00388843)
(-0.037866 0.00247178 -0.0115744)
(-0.021677 0.00204865 -0.0212573)
(-0.0052804 -9.05222e-05 -0.0138066)
(-0.00222109 -0.00319198 0.0273453)
(-0.0094118 -0.00388894 0.0442956)
(-0.0194455 -0.00336492 0.0476753)
(-0.0296672 -0.00229379 0.0453539)
(-0.0404861 -0.00103518 0.0386284)
(-0.0511476 1.74126e-05 0.0259179)
(-0.0583889 0.000405429 0.00553647)
(-0.0559972 -0.000242026 -0.0202983)
(-0.0379757 -0.00101974 -0.0399724)
(-0.0117053 -2.76297e-05 -0.0308708)
(-0.00609043 -0.00828105 0.045057)
(-0.025266 -0.0106415 0.0796908)
(-0.0514842 -0.00914086 0.0863148)
(-0.0765605 -0.0058077 0.0782912)
(-0.0996004 -0.00168458 0.0585279)
(-0.118182 0.00213732 0.02523)
(-0.126525 0.00422157 -0.022144)
(-0.11502 0.00304983 -0.0750881)
(-0.0757967 -2.28196e-05 -0.105762)
(-0.0225492 -0.000170381 -0.06729)
(-0.00869515 -0.00965268 0.0499642)
(-0.0362725 -0.0130772 0.0910558)
(-0.0735341 -0.0110854 0.0980106)
(-0.107556 -0.00640145 0.0853099)
(-0.136187 -0.000457701 0.05654)
(-0.15607 0.00522613 0.0105856)
(-0.161091 0.00848099 -0.0512128)
(-0.141868 0.00706433 -0.116108)
(-0.0917806 0.00226154 -0.147763)
(-0.0267739 -0.000223465 -0.0877328)
(-0.0101381 -0.00711761 0.05083)
(-0.0426263 -0.00992337 0.0936897)
(-0.0862422 -0.00831934 0.100068)
(-0.124834 -0.00447137 0.0844059)
(-0.155448 0.000433165 0.0506927)
(-0.174429 0.00509787 -0.00145678)
(-0.176204 0.00766058 -0.069367)
(-0.15248 0.00636412 -0.138475)
(-0.0978579 0.00234839 -0.169068)
(-0.0283422 -0.000104646 -0.0976838)
(-0.0107341 -0.00256955 0.0507781)
(-0.0453694 -0.00362651 0.0939628)
(-0.0917521 -0.00302117 0.0999236)
(-0.13216 -0.00156064 0.0829509)
(-0.163284 0.000299025 0.0472333)
(-0.181437 0.00204916 -0.00718506)
(-0.181534 0.00297845 -0.0771112)
(-0.156014 0.00245134 -0.147428)
(-0.0999518 0.000936895 -0.177357)
(-0.0289064 -2.22169e-05 -0.101511)
(-0.0107341 0.00256957 0.0507781)
(-0.0453694 0.00362652 0.0939628)
(-0.0917521 0.00302117 0.0999236)
(-0.13216 0.00156064 0.0829509)
(-0.163284 -0.000299026 0.0472333)
(-0.181437 -0.00204916 -0.00718506)
(-0.181534 -0.00297845 -0.0771112)
(-0.156014 -0.00245133 -0.147428)
(-0.0999518 -0.000936891 -0.177357)
(-0.0289064 2.22218e-05 -0.101511)
(-0.0101381 0.00711763 0.05083)
(-0.0426263 0.00992337 0.0936897)
(-0.0862422 0.00831934 0.100068)
(-0.124834 0.00447137 0.0844059)
(-0.155448 -0.000433164 0.0506927)
(-0.174429 -0.00509786 -0.00145677)
(-0.176204 -0.00766058 -0.069367)
(-0.15248 -0.00636412 -0.138475)
(-0.0978579 -0.00234839 -0.169068)
(-0.0283422 0.00010465 -0.0976838)
(-0.00869515 0.00965269 0.0499642)
(-0.0362724 0.0130772 0.0910558)
(-0.0735341 0.0110854 0.0980106)
(-0.107556 0.00640145 0.0853099)
(-0.136187 0.000457705 0.05654)
(-0.15607 -0.00522613 0.0105856)
(-0.161092 -0.00848099 -0.0512128)
(-0.141868 -0.00706433 -0.116108)
(-0.0917806 -0.00226154 -0.147763)
(-0.0267739 0.000223469 -0.0877328)
(-0.00609043 0.00828106 0.045057)
(-0.025266 0.0106415 0.0796908)
(-0.0514842 0.00914086 0.0863148)
(-0.0765605 0.0058077 0.0782912)
(-0.0996004 0.00168458 0.0585279)
(-0.118182 -0.00213732 0.02523)
(-0.126525 -0.00422156 -0.022144)
(-0.11502 -0.00304983 -0.0750881)
(-0.0757967 2.28219e-05 -0.105762)
(-0.0225492 0.000170383 -0.06729)
(-0.00222109 0.00319198 0.0273453)
(-0.00941181 0.00388894 0.0442956)
(-0.0194455 0.00336492 0.0476753)
(-0.0296672 0.00229379 0.0453539)
(-0.0404861 0.00103518 0.0386284)
(-0.0511476 -1.74119e-05 0.0259179)
(-0.0583889 -0.000405429 0.00553647)
(-0.0559972 0.000242027 -0.0202983)
(-0.0379757 0.00101974 -0.0399724)
(-0.0117053 2.76301e-05 -0.0308708)
(-0.00367124 -0.00381163 0.0402156)
(-0.0121355 -0.00431617 0.0612057)
(-0.0215356 -0.00300688 0.0634338)
(-0.0308979 -0.000691849 0.0589845)
(-0.042488 0.00216647 0.0497586)
(-0.0571331 0.00494903 0.0331437)
(-0.071708 0.00652625 0.00536005)
(-0.0770791 0.00544728 -0.0334486)
(-0.0614824 0.00216443 -0.0687162)
(-0.022466 -0.000356283 -0.0622577)
(-0.00844676 -0.00964956 0.0654183)
(-0.0302399 -0.011545 0.10987)
(-0.0565818 -0.00790951 0.115917)
(-0.080726 -0.00111278 0.104185)
(-0.104415 0.00738314 0.0788772)
(-0.127523 0.0156194 0.036548)
(-0.144747 0.0202554 -0.0266462)
(-0.143251 0.0172813 -0.105066)
(-0.109196 0.00745203 -0.164693)
(-0.0382966 -0.000855485 -0.126923)
(-0.0112845 -0.0109849 0.0726883)
(-0.042049 -0.0138917 0.126011)
(-0.0798433 -0.00925784 0.132953)
(-0.112464 -0.000281832 0.116188)
(-0.14041 0.0108719 0.081018)
(-0.162886 0.0212466 0.0247091)
(-0.175072 0.0263658 -0.0551306)
(-0.165585 0.021827 -0.149598)
(-0.123682 0.00942457 -0.216254)
(-0.0430541 -0.000528518 -0.158421)
(-0.012748 -0.00797304 0.0744155)
(-0.0485553 -0.0103854 0.130374)
(-0.0926521 -0.00677334 0.137016)
(-0.129111 0.000307262 0.117375)
(-0.157669 0.00901208 0.0774408)
(-0.177578 0.0168078 0.0152944)
(-0.185338 0.0201095 -0.0705996)
(-0.17166 0.0160524 -0.170473)
(-0.127925 0.0067552 -0.239128)
(-0.0448288 -0.000188596 -0.172291)
(-0.0133158 -0.00285442 0.0746814)
(-0.051241 -0.00376514 0.131243)
(-0.0979476 -0.00242648 0.137579)
(-0.135745 0.000207059 0.116743)
(-0.164053 0.00341153 0.075076)
(-0.182361 0.00622029 0.0110873)
(-0.188095 0.00728883 -0.076551)
(-0.173091 0.00569308 -0.178068)
(-0.12936 0.00235965 -0.247443)
(-0.0455866 -2.72464e-05 -0.177425)
(-0.0133158 0.00285443 0.0746814)
(-0.051241 0.00376515 0.131243)
(-0.0979476 0.00242648 0.137579)
(-0.135745 -0.000207064 0.116743)
(-0.164053 -0.00341153 0.075076)
(-0.182361 -0.00622029 0.0110873)
(-0.188095 -0.00728882 -0.076551)
(-0.173091 -0.00569308 -0.178068)
(-0.12936 -0.00235965 -0.247443)
(-0.0455866 2.72513e-05 -0.177425)
(-0.012748 0.00797305 0.0744155)
(-0.0485553 0.0103854 0.130374)
(-0.0926521 0.00677334 0.137016)
(-0.129111 -0.000307264 0.117375)
(-0.157669 -0.00901208 0.0774408)
(-0.177578 -0.0168078 0.0152944)
(-0.185338 -0.0201095 -0.0705996)
(-0.17166 -0.0160524 -0.170473)
(-0.127925 -0.0067552 -0.239128)
(-0.0448288 0.000188601 -0.172291)
(-0.0112845 0.0109849 0.0726883)
(-0.042049 0.0138917 0.126011)
(-0.0798433 0.00925784 0.132953)
(-0.112464 0.000281833 0.116188)
(-0.14041 -0.0108718 0.081018)
(-0.162886 -0.0212466 0.0247091)
(-0.175072 -0.0263658 -0.0551306)
(-0.165585 -0.021827 -0.149598)
(-0.123682 -0.00942456 -0.216254)
(-0.0430541 0.000528521 -0.158421)
(-0.00844676 0.00964956 0.0654182)
(-0.0302399 0.011545 0.10987)
(-0.0565818 0.00790951 0.115917)
(-0.080726 0.00111278 0.104185)
(-0.104415 -0.00738314 0.0788772)
(-0.127523 -0.0156194 0.036548)
(-0.144747 -0.0202554 -0.0266462)
(-0.143251 -0.0172813 -0.105066)
(-0.109196 -0.00745203 -0.164693)
(-0.0382966 0.000855487 -0.126923)
(-0.00367124 0.00381163 0.0402156)
(-0.0121355 0.00431617 0.0612056)
(-0.0215356 0.00300688 0.0634338)
(-0.0308979 0.00069185 0.0589845)
(-0.042488 -0.00216647 0.0497586)
(-0.0571331 -0.00494903 0.0331437)
(-0.071708 -0.00652625 0.00536006)
(-0.0770791 -0.00544728 -0.0334486)
(-0.0614824 -0.00216443 -0.0687162)
(-0.022466 0.000356284 -0.0622577)
(-0.00745267 -0.00464616 0.0579251)
(-0.0179697 -0.00475143 0.0782817)
(-0.0233351 -0.00224894 0.0757847)
(-0.0278317 0.00177292 0.0670097)
(-0.0364243 0.00673869 0.05458)
(-0.0524796 0.0118856 0.0347493)
(-0.0746787 0.015379 0.00115232)
(-0.0918359 0.0141094 -0.0511114)
(-0.0869309 0.00719905 -0.107194)
(-0.0359015 -0.00124048 -0.1151)
(-0.0136095 -0.011228 0.0913702)
(-0.037824 -0.0121747 0.140222)
(-0.0580361 -0.00559917 0.141257)
(-0.0730477 0.00539757 0.123925)
(-0.088646 0.0188724 0.0940325)
(-0.108578 0.0321285 0.0465995)
(-0.130848 0.0399347 -0.0264445)
(-0.142087 0.0349556 -0.12836)
(-0.127411 0.0161117 -0.226813)
(-0.0498843 -0.00389706 -0.216808)
(-0.0164039 -0.0122742 0.100451)
(-0.0489048 -0.0142456 0.160661)
(-0.0792844 -0.00638428 0.163652)
(-0.100252 0.00716978 0.142193)
(-0.116513 0.0233686 0.103513)
(-0.13163 0.0380804 0.0432833)
(-0.145249 0.0447994 -0.0456638)
(-0.147238 0.0365718 -0.16577)
(-0.130118 0.0150757 -0.278932)
(-0.0510336 -0.0036251 -0.258272)
(-0.0176228 -0.00869775 0.102589)
(-0.0544359 -0.0104583 0.166322)
(-0.0900379 -0.0045806 0.169725)
(-0.113235 0.00566225 0.146335)
(-0.128095 0.0176622 0.104146)
(-0.138548 0.0279277 0.0394821)
(-0.146319 0.0315537 -0.0544164)
(-0.144294 0.0244099 -0.180614)
(-0.128972 0.00932775 -0.299411)
(-0.0516354 -0.00218615 -0.27506)
(-0.0180305 -0.00307729 0.102963)
(-0.0565278 -0.00375771 0.167561)
(-0.0941265 -0.00162528 0.170962)
(-0.117878 0.00209862 0.146852)
(-0.131652 0.00640699 0.103589)
(-0.139793 0.00997036 0.0377655)
(-0.145292 0.0110176 -0.0574041)
(-0.142458 0.00827702 -0.185662)
(-0.128828 0.00304947 -0.306701)
(-0.0522244 -0.000683401 -0.28124)
(-0.0180305 0.0030773 0.102963)
(-0.0565278 0.00375771 0.167561)
(-0.0941265 0.00162527 0.170962)
(-0.117878 -0.00209862 0.146852)
(-0.131652 -0.00640699 0.103589)
(-0.139793 -0.00997036 0.0377655)
(-0.145292 -0.0110176 -0.0574041)
(-0.142458 -0.00827702 -0.185662)
(-0.128828 -0.00304946 -0.306701)
(-0.0522244 0.000683407 -0.28124)
(-0.0176228 0.00869776 0.102589)
(-0.0544359 0.0104583 0.166322)
(-0.0900379 0.0045806 0.169725)
(-0.113235 -0.00566225 0.146335)
(-0.128095 -0.0176622 0.104146)
(-0.138548 -0.0279277 0.0394821)
(-0.146319 -0.0315537 -0.0544164)
(-0.144294 -0.0244098 -0.180614)
(-0.128972 -0.00932774 -0.299411)
(-0.0516354 0.00218616 -0.27506)
(-0.0164039 0.0122742 0.100451)
(-0.0489048 0.0142456 0.160661)
(-0.0792844 0.00638428 0.163652)
(-0.100252 -0.00716978 0.142193)
(-0.116513 -0.0233686 0.103513)
(-0.13163 -0.0380804 0.0432833)
(-0.145249 -0.0447994 -0.0456638)
(-0.147238 -0.0365718 -0.16577)
(-0.130118 -0.0150757 -0.278932)
(-0.0510336 0.0036251 -0.258272)
(-0.0136095 0.011228 0.0913702)
(-0.037824 0.0121747 0.140222)
(-0.0580361 0.00559917 0.141257)
(-0.0730477 -0.00539757 0.123925)
(-0.088646 -0.0188724 0.0940325)
(-0.108578 -0.0321285 0.0465995)
(-0.130849 -0.0399347 -0.0264445)
(-0.142087 -0.0349556 -0.12836)
(-0.127411 -0.0161117 -0.226813)
(-0.0498843 0.00389706 -0.216808)
(-0.00745267 0.00464616 0.0579251)
(-0.0179697 0.00475143 0.0782816)
(-0.0233351 0.00224894 0.0757847)
(-0.0278317 -0.00177291 0.0670096)
(-0.0364244 -0.00673869 0.05458)
(-0.0524796 -0.0118856 0.0347493)
(-0.0746787 -0.015379 0.00115232)
(-0.0918359 -0.0141094 -0.0511114)
(-0.0869309 -0.00719905 -0.107194)
(-0.0359015 0.00124048 -0.1151)
(-0.0167866 -0.00641153 0.0815769)
(-0.0298026 -0.00638375 0.0916466)
(-0.0210756 -0.00272992 0.0798325)
(-0.012401 0.00293208 0.0641712)
(-0.0105196 0.00970036 0.0481963)
(-0.0210066 0.0170017 0.0270359)
(-0.0466313 0.0228327 -0.00873027)
(-0.0764882 0.0218552 -0.0708748)
(-0.0963191 0.0106187 -0.150034)
(-0.0417502 -0.00570054 -0.193955)
(-0.0264703 -0.0143969 0.121366)
(-0.0534522 -0.0150222 0.163682)
(-0.0514571 -0.0061511 0.154126)
(-0.0414831 0.00785949 0.128385)
(-0.0337316 0.0244777 0.0955537)
(-0.0352394 0.0412634 0.0499383)
(-0.0512519 0.0528368 -0.0207592)
(-0.071497 0.0477458 -0.133438)
(-0.0966336 0.0200957 -0.270736)
(-0.0362641 -0.013419 -0.323771)
(-0.0295273 -0.0147471 0.130578)
(-0.0636454 -0.0166217 0.187048)
(-0.0686947 -0.00683395 0.181055)
(-0.0599706 0.00895629 0.152733)
(-0.047712 0.0272903 0.113469)
(-0.038806 0.0442155 0.0581583)
(-0.0413331 0.0532812 -0.0246771)
(-0.0493254 0.0441601 -0.154076)
(-0.0777616 0.0153467 -0.311766)
(-0.028252 -0.0114656 -0.365172)
(-0.0304798 -0.0100322 0.132382)
(-0.067723 -0.011775 0.193296)
(-0.0762212 -0.00480533 0.188817)
(-0.0678341 0.00650786 0.159961)
(-0.0526842 0.0194046 0.11882)
(-0.0377916 0.0306048 0.0606267)
(-0.0335374 0.0353838 -0.0257814)
(-0.0370813 0.0276147 -0.160958)
(-0.0701506 0.00864584 -0.326447)
(-0.0266454 -0.00664351 -0.380552)
(-0.0306905 -0.00347837 0.132603)
(-0.0689537 -0.00415759 0.194577)
(-0.0785874 -0.00168725 0.190532)
(-0.0700776 0.00232414 0.161606)
(-0.0535621 0.00683811 0.120083)
(-0.0362812 0.01063 0.0612618)
(-0.0298469 0.0120241 -0.0261231)
(-0.0327891 0.00910335 -0.163429)
(-0.068653 0.00273276 -0.331869)
(-0.0269182 -0.00205552 -0.386243)
(-0.0306905 0.00347838 0.132603)
(-0.0689537 0.00415759 0.194577)
(-0.0785874 0.00168725 0.190532)
(-0.0700776 -0.00232414 0.161606)
(-0.0535621 -0.00683812 0.120083)
(-0.0362812 -0.01063 0.0612618)
(-0.0298469 -0.0120241 -0.0261231)
(-0.0327891 -0.00910335 -0.163429)
(-0.068653 -0.00273275 -0.331869)
(-0.0269182 0.00205553 -0.386243)
(-0.0304798 0.0100322 0.132382)
(-0.067723 0.011775 0.193296)
(-0.0762212 0.00480532 0.188817)
(-0.0678341 -0.00650786 0.159961)
(-0.0526842 -0.0194046 0.11882)
(-0.0377916 -0.0306048 0.0606267)
(-0.0335374 -0.0353838 -0.0257814)
(-0.0370813 -0.0276147 -0.160958)
(-0.0701506 -0.00864584 -0.326447)
(-0.0266454 0.00664352 -0.380552)
(-0.0295273 0.0147471 0.130578)
(-0.0636454 0.0166217 0.187048)
(-0.0686947 0.00683395 0.181055)
(-0.0599706 -0.00895629 0.152733)
(-0.047712 -0.0272903 0.113469)
(-0.038806 -0.0442155 0.0581583)
(-0.0413331 -0.0532812 -0.0246771)
(-0.0493254 -0.0441601 -0.154076)
(-0.0777616 -0.0153467 -0.311766)
(-0.028252 0.0114656 -0.365172)
(-0.0264703 0.0143969 0.121366)
(-0.0534522 0.0150222 0.163682)
(-0.0514571 0.0061511 0.154126)
(-0.0414831 -0.00785949 0.128385)
(-0.0337316 -0.0244777 0.0955537)
(-0.0352394 -0.0412634 0.0499383)
(-0.0512519 -0.0528368 -0.0207592)
(-0.071497 -0.0477458 -0.133438)
(-0.0966336 -0.0200957 -0.270736)
(-0.0362641 0.013419 -0.323771)
(-0.0167866 0.00641153 0.0815769)
(-0.0298026 0.00638375 0.0916466)
(-0.0210756 0.00272992 0.0798325)
(-0.012401 -0.00293208 0.0641712)
(-0.0105196 -0.00970036 0.0481963)
(-0.0210066 -0.0170017 0.0270359)
(-0.0466313 -0.0228327 -0.00873027)
(-0.0764882 -0.0218552 -0.0708748)
(-0.0963191 -0.0106187 -0.150034)
(-0.0417502 0.00570054 -0.193955)
(-0.0239368 -0.0111635 0.150645)
(-0.0211709 -0.0116204 0.0983209)
(0.0258781 -0.00712583 0.0629725)
(0.0593523 -0.000748545 0.0418496)
(0.0801403 0.00643844 0.0257979)
(0.0831084 0.0142768 0.00833143)
(0.0617197 0.0216739 -0.0200221)
(0.0248745 0.0211866 -0.0774316)
(-0.0423483 0.0057793 -0.172665)
(-0.00690006 -0.0173915 -0.258815)
(-0.0429143 -0.0226936 0.209942)
(-0.0437377 -0.0252005 0.168618)
(0.0189606 -0.0161978 0.126399)
(0.0735501 -0.00255599 0.0947261)
(0.117836 0.0133125 0.0660461)
(0.146307 0.0299614 0.0331429)
(0.145442 0.0448253 -0.015738)
(0.127359 0.0436053 -0.106098)
(0.0379023 0.0115744 -0.255085)
(0.0429794 -0.0308957 -0.368601)
(-0.0482861 -0.0203109 0.219906)
(-0.0536386 -0.0250229 0.188173)
(0.00790931 -0.0169622 0.148824)
(0.0668697 -0.00354148 0.116146)
(0.119843 0.0124248 0.0839594)
(0.162047 0.0283083 0.0453376)
(0.175311 0.0404999 -0.01055)
(0.17174 0.036736 -0.109744)
(0.0778546 0.0074625 -0.274457)
(0.0621537 -0.0216679 -0.394494)
(-0.0492397 -0.0128236 0.220756)
(-0.0562827 -0.0166233 0.191981)
(0.00390857 -0.0114443 0.154391)
(0.0638068 -0.00254445 0.12226)
(0.119578 0.00800245 0.0895472)
(0.166824 0.0181902 0.0492788)
(0.184945 0.0251981 -0.00906955)
(0.18561 0.0218837 -0.111341)
(0.0876286 0.00455783 -0.281381)
(0.065152 -0.0112056 -0.403328)
(-0.049214 -0.0042915 0.220464)
(-0.0565428 -0.00569071 0.19225)
(0.00332483 -0.00393116 0.155221)
(0.0635944 -0.000886492 0.123431)
(0.120234 0.00269824 0.0907895)
(0.168931 0.00610509 0.0502096)
(0.188162 0.00831764 -0.0089259)
(0.189151 0.00710202 -0.11245)
(0.0886463 0.00156044 -0.284287)
(0.0647589 -0.00329319 -0.406558)
(-0.049214 0.0042915 0.220464)
(-0.0565428 0.00569071 0.19225)
(0.00332483 0.00393116 0.155221)