/*--------------------------------*- C++ -*----------------------------------*\
  =========                 |
  \\      /  F ield         | OpenFOAM: The Open Source CFD Toolbox
   \\    /   O peration     | Website:  https://openfoam.org
    \\  /    A nd           | Version:  9
     \\/     M anipulation  |
\*---------------------------------------------------------------------------*/
FoamFile
{
    format      ascii;
    class       surfaceScalarField;
    location    "0.57";
    object      phi;
}
// * * * * * * * * * * * * * * * * * * * * * * * * * * * * * * * * * * * * * //

dimensions      [0 3 -1 0 0 0 0];

internalField   nonuniform List<scalar> 
2700
(
-6.24376e-08
-1.00443e-07
1.62758e-07
-3.08417e-07
-1.09659e-07
3.55638e-07
-6.30396e-07
-1.09688e-07
4.31667e-07
-9.44788e-07
-1.3061e-07
4.45003e-07
-1.1659e-06
-1.81819e-07
4.02933e-07
-1.19827e-06
-2.57997e-07
2.90363e-07
-9.76236e-07
-3.32871e-07
1.10839e-07
-5.40153e-07
-3.5805e-07
-7.80331e-08
-1.05072e-07
-2.87253e-07
-1.47828e-07
-9.46758e-08
-1.03958e-08
-1.61811e-07
-2.16252e-07
2.7762e-07
-6.86164e-07
-2.83981e-07
6.98675e-07
-1.34484e-06
-3.0341e-07
8.52399e-07
-1.96019e-06
-3.43792e-07
8.28529e-07
-2.36637e-06
-4.25331e-07
6.49694e-07
-2.39245e-06
-5.37031e-07
3.05112e-07
-1.92946e-06
-6.34096e-07
-1.61764e-07
-1.07272e-06
-6.45025e-07
-5.69762e-07
-2.35908e-07
-5.12706e-07
-6.11359e-07
-2.07388e-07
-1.23196e-07
-2.35668e-07
-2.34314e-07
2.5373e-07
-9.44103e-07
-3.31028e-07
7.55482e-07
-1.81477e-06
-3.61775e-07
9.2903e-07
-2.60895e-06
-4.03392e-07
8.53784e-07
-3.10939e-06
-4.78599e-07
5.53703e-07
-3.10102e-06
-5.7735e-07
3.19524e-08
-2.45239e-06
-6.50498e-07
-6.32233e-07
-1.31407e-06
-6.42685e-07
-1.14065e-06
-2.53386e-07
-5.09491e-07
-1.0639e-06
-2.24312e-07
-2.36462e-07
-2.83756e-07
-1.47858e-07
1.973e-07
-1.11043e-06
-2.15527e-07
7.11175e-07
-2.1151e-06
-2.37663e-07
8.80555e-07
-3.01809e-06
-2.63084e-07
7.62687e-07
-3.5686e-06
-3.06019e-07
3.77923e-07
-3.51398e-06
-3.59789e-07
-2.72175e-07
-2.72961e-06
-3.97545e-07
-1.03733e-06
-1.40747e-06
-3.87099e-07
-1.57772e-06
-2.27607e-07
-3.06836e-07
-1.38252e-06
-1.40633e-07
-3.11286e-07
-3.07842e-07
-2.41151e-12
1.59986e-07
-1.19271e-06
-2.17442e-12
6.69345e-07
-2.26274e-06
-1.72122e-12
8.32365e-07
-3.21716e-06
-1.26078e-12
6.91341e-07
-3.78734e-06
-9.29435e-13
2.64157e-07
-3.70559e-06
-6.38756e-13
-4.41535e-07
-2.84808e-06
-4.76764e-13
-1.25506e-06
-1.43533e-06
-3.7064e-13
-1.79985e-06
-2.05164e-07
-2.93997e-13
-1.537e-06
-2.41276e-13
-3.45797e-07
-3.07841e-07
1.47853e-07
1.59986e-07
-1.19271e-06
2.15522e-07
6.69345e-07
-2.26274e-06
2.3766e-07
8.32365e-07
-3.21716e-06
2.63082e-07
6.91341e-07
-3.78733e-06
3.06017e-07
2.64157e-07
-3.70559e-06
3.59788e-07
-4.41535e-07
-2.84808e-06
3.97544e-07
-1.25506e-06
-1.43533e-06
3.87098e-07
-1.79985e-06
-2.05164e-07
3.06836e-07
-1.537e-06
1.40633e-07
-3.45797e-07
-2.83754e-07
2.34305e-07
1.97302e-07
-1.11043e-06
3.31021e-07
7.11177e-07
-2.1151e-06
3.61771e-07
8.80556e-07
-3.01809e-06
4.03389e-07
7.62687e-07
-3.5686e-06
4.78597e-07
3.77924e-07
-3.51398e-06
5.77348e-07
-2.72175e-07
-2.72961e-06
6.50497e-07
-1.03733e-06
-1.40747e-06
6.42684e-07
-1.57772e-06
-2.27607e-07
5.0949e-07
-1.38252e-06
2.24312e-07
-3.11286e-07
-2.35664e-07
2.16234e-07
2.53734e-07
-9.44099e-07
2.83972e-07
7.55486e-07
-1.81477e-06
3.03406e-07
9.29032e-07
-2.60895e-06
3.43789e-07
8.53785e-07
-3.10939e-06
4.25329e-07
5.53704e-07
-3.10102e-06
5.3703e-07
3.19526e-08
-2.45239e-06
6.34096e-07
-6.32233e-07
-1.31407e-06
6.45025e-07
-1.14065e-06
-2.53386e-07
5.12705e-07
-1.0639e-06
2.07388e-07
-2.36462e-07
-1.61799e-07
1.00401e-07
2.77633e-07
-6.86155e-07
1.09647e-07
6.98682e-07
-1.34483e-06
1.09683e-07
8.52402e-07
-1.96018e-06
1.30608e-07
8.2853e-07
-2.36637e-06
1.81818e-07
6.49695e-07
-2.39245e-06
2.57996e-07
3.05112e-07
-1.92946e-06
3.32871e-07
-1.61764e-07
-1.07272e-06
3.58049e-07
-5.69762e-07
-2.35908e-07
2.87253e-07
-6.11359e-07
9.46755e-08
-1.23196e-07
-6.23978e-08
1.62799e-07
-3.08401e-07
3.5565e-07
-6.30389e-07
4.31671e-07
-9.44785e-07
4.45005e-07
-1.1659e-06
4.02933e-07
-1.19827e-06
2.90363e-07
-9.76235e-07
1.10839e-07
-5.40153e-07
-7.80329e-08
-1.05071e-07
-1.47828e-07
-1.03959e-08
-2.21134e-07
-2.63918e-07
6.4781e-07
-7.22337e-07
-3.47465e-07
1.20431e-06
-1.32145e-06
-3.62525e-07
1.3933e-06
-1.8881e-06
-3.7408e-07
1.38574e-06
-2.28217e-06
-4.08044e-07
1.20504e-06
-2.34759e-06
-4.65464e-07
8.21253e-07
-1.9706e-06
-5.19935e-07
2.53781e-07
-1.18896e-06
-5.142e-07
-3.45471e-07
-3.31578e-07
-3.82133e-07
-6.23077e-07
-8.12746e-08
-2.60699e-07
-5.943e-07
-4.75878e-07
1.08388e-06
-1.79424e-06
-6.85544e-07
2.23669e-06
-3.16693e-06
-7.3057e-07
2.59313e-06
-4.39217e-06
-7.53492e-07
2.43318e-06
-5.16836e-06
-8.05939e-07
1.82378e-06
-5.20499e-06
-8.85967e-07
7.62251e-07
-4.31773e-06
-9.53133e-07
-6.15832e-07
-2.62998e-06
-9.15226e-07
-1.85648e-06
-8.15252e-07
-6.9179e-07
-2.11643e-06
-2.24772e-07
-7.94949e-07
-8.69053e-07
-4.79907e-07
1.12681e-06
-2.5616e-06
-7.24384e-07
2.48687e-06
-4.44601e-06
-7.80869e-07
2.86374e-06
-6.0674e-06
-8.0406e-07
2.52574e-06
-7.02228e-06
-8.49508e-07
1.55215e-06
-6.96904e-06
-9.15877e-07
8.62817e-09
-5.68425e-06
-9.52845e-07
-1.91732e-06
-3.39966e-06
-8.96988e-07
-3.44348e-06
-1.02723e-06
-6.85594e-07
-3.44253e-06
-2.62854e-07
-1.22561e-06
-1.04422e-06
-2.93273e-07
1.05489e-06
-3.05496e-06
-4.5285e-07
2.45038e-06
-5.25839e-06
-4.90782e-07
2.79389e-06
-7.10811e-06
-5.04261e-07
2.31261e-06
-8.14261e-06
-5.27921e-07
1.09083e-06
-7.98121e-06
-5.60794e-07
-7.8865e-07
-6.41915e-06
-5.73006e-07
-2.97923e-06
-3.7645e-06
-5.33431e-07
-4.59592e-06
-1.09128e-06
-4.10818e-07
-4.33052e-06
-1.69744e-07
-1.49568e-06
-1.12878e-06
-2.09648e-12
9.95494e-07
-3.29535e-06
-2.12975e-12
2.38307e-06
-5.6519e-06
-1.80114e-12
2.69814e-06
-7.60493e-06
-1.36611e-12
2.14011e-06
-8.66622e-06
-9.88108e-13
7.97528e-07
-8.43764e-06
-6.91231e-13
-1.23091e-06
-6.73298e-06
-4.93461e-13
-3.53272e-06
-3.90343e-06
-3.62738e-13
-5.16283e-06
-1.10243e-06
-2.76794e-13
-4.74882e-06
-2.35148e-13
-1.61797e-06
-1.12878e-06
2.93268e-07
9.95495e-07
-3.29535e-06
4.52846e-07
2.38307e-06
-5.6519e-06
4.90778e-07
2.69814e-06
-7.60493e-06
5.04258e-07
2.14011e-06
-8.66622e-06
5.27919e-07
7.97528e-07
-8.43764e-06
5.60793e-07
-1.23091e-06
-6.73298e-06
5.73005e-07
-3.53272e-06
-3.90343e-06
5.3343e-07
-5.16283e-06
-1.10243e-06
4.10818e-07
-4.74882e-06
1.69744e-07
-1.61797e-06
-1.04422e-06
4.79901e-07
1.05489e-06
-3.05496e-06
7.24378e-07
2.45038e-06
-5.25838e-06
7.80865e-07
2.7939e-06
-7.10811e-06
8.04057e-07
2.31262e-06
-8.1426e-06
8.49506e-07
1.09083e-06
-7.98121e-06
9.15876e-07
-7.8865e-07
-6.41915e-06
9.52844e-07
-2.97923e-06
-3.7645e-06
8.96987e-07
-4.59592e-06
-1.09128e-06
6.85593e-07
-4.33052e-06
2.62854e-07
-1.49568e-06
-8.6905e-07
4.75869e-07
1.12682e-06
-2.56159e-06
6.85537e-07
2.48687e-06
-4.446e-06
7.30565e-07
2.86374e-06
-6.0674e-06
7.53489e-07
2.52575e-06
-7.02228e-06
8.05938e-07
1.55215e-06
-6.96904e-06
8.85966e-07
8.62857e-09
-5.68425e-06
9.53132e-07
-1.91732e-06
-3.39966e-06
9.15226e-07
-3.44348e-06
-1.02723e-06
6.9179e-07
-3.44253e-06
2.24772e-07
-1.22561e-06
-5.94294e-07
2.63906e-07
1.08389e-06
-1.79423e-06
3.47458e-07
2.2367e-06
-3.16692e-06
3.62522e-07
2.59314e-06
-4.39216e-06
3.74079e-07
2.43318e-06
-5.16835e-06
4.08044e-07
1.82378e-06
-5.20499e-06
4.65464e-07
7.62252e-07
-4.31773e-06
5.19935e-07
-6.15832e-07
-2.62998e-06
5.14199e-07
-1.85648e-06
-8.15252e-07
3.82133e-07
-2.11643e-06
8.12744e-08
-7.94949e-07
-2.21121e-07
6.47826e-07
-7.22328e-07
1.20432e-06
-1.32144e-06
1.39331e-06
-1.8881e-06
1.38574e-06
-2.28216e-06
1.20504e-06
-2.34759e-06
8.21253e-07
-1.9706e-06
2.53782e-07
-1.18896e-06
-3.45471e-07
-3.31578e-07
-6.23076e-07
-2.60699e-07
-3.33703e-07
-4.05702e-07
1.38721e-06
-1.00628e-06
-5.39387e-07
2.41627e-06
-1.78537e-06
-5.454e-07
2.7178e-06
-2.53827e-06
-5.14921e-07
2.65355e-06
-3.11667e-06
-4.93651e-07
2.27709e-06
-3.32298e-06
-5.01303e-07
1.52887e-06
-2.95786e-06
-5.25604e-07
4.14265e-07
-1.95873e-06
-5.20035e-07
-8.24567e-07
-6.67459e-07
-3.90482e-07
-1.52387e-06
-3.9406e-08
-8.88752e-07
-9.42813e-07
-6.9704e-07
2.31803e-06
-2.6567e-06
-1.00009e-06
4.41129e-06
-4.54832e-06
-1.01981e-06
4.95916e-06
-6.24118e-06
-9.54751e-07
4.56587e-06
-7.39055e-06
-8.92937e-07
3.37243e-06
-7.62663e-06
-8.65195e-07
1.36223e-06
-6.62755e-06
-8.54676e-07
-1.28584e-06
-4.3657e-06
-8.09915e-07
-3.82844e-06
-1.56844e-06
-6.21919e-07
-4.68226e-06
-1.54169e-07
-2.24863e-06
-1.40706e-06
-6.82484e-07
2.51932e-06
-3.88433e-06
-1.01915e-06
4.9832e-06
-6.5307e-06
-1.04366e-06
5.53396e-06
-8.7847e-06
-9.68587e-07
4.79358e-06
-1.01829e-05
-8.85238e-07
2.94261e-06
-1.02876e-05
-8.2156e-07
6.96988e-08
-8.76719e-06
-7.71409e-07
-3.52095e-06
-5.67468e-06
-7.09631e-07
-6.63628e-06
-2.00342e-06
-5.5855e-07
-7.17715e-06
-1.89738e-07
-3.19346e-06
-1.70773e-06
-4.09946e-07
2.49008e-06
-4.67958e-06
-6.24479e-07
5.02756e-06
-7.78934e-06
-6.40322e-07
5.50031e-06
-1.03482e-05
-5.89998e-07
4.4929e-06
-1.18273e-05
-5.2991e-07
2.21459e-06
-1.17735e-05
-4.76875e-07
-1.18711e-06
-9.88615e-06
-4.32255e-07
-5.20576e-06
-6.30056e-06
-3.90959e-07
-8.50019e-06
-2.17337e-06
-3.14267e-07
-8.70199e-06
-1.2316e-07
-3.73562e-06
-1.85307e-06
-1.57898e-12
2.43862e-06
-5.06535e-06
-1.77029e-12
4.97087e-06
-8.39273e-06
-1.57379e-12
5.38519e-06
-1.10814e-05
-1.2215e-12
4.23877e-06
-1.25738e-05
-8.90502e-13
1.76008e-06
-1.24199e-05
-6.05318e-13
-1.86168e-06
-1.03479e-05
-4.32093e-13
-6.03699e-06
-6.54036e-06
-3.22245e-13
-9.36136e-06
-2.2266e-06
-2.48956e-13
-9.37685e-06
-2.07917e-13
-3.96773e-06
-1.85307e-06
4.09943e-07
2.43862e-06
-5.06535e-06
6.24475e-07
4.97087e-06
-8.39272e-06
6.40319e-07
5.38519e-06
-1.10814e-05
5.89995e-07
4.23877e-06
-1.25738e-05
5.29908e-07
1.76008e-06
-1.24199e-05
4.76874e-07
-1.86168e-06
-1.03479e-05
4.32254e-07
-6.03699e-06
-6.54036e-06
3.90959e-07
-9.36136e-06
-2.2266e-06
3.14266e-07
-9.37685e-06
1.2316e-07
-3.96773e-06
-1.70773e-06
6.8248e-07
2.49008e-06
-4.67958e-06
1.01915e-06
5.02756e-06
-7.78934e-06
1.04366e-06
5.50031e-06
-1.03482e-05
9.68585e-07
4.4929e-06
-1.18273e-05
8.85236e-07
2.21459e-06
-1.17735e-05
8.21559e-07
-1.18711e-06
-9.88615e-06
7.71408e-07
-5.20576e-06
-6.30056e-06
7.09631e-07
-8.50019e-06
-2.17337e-06
5.58549e-07
-8.70199e-06
1.89738e-07
-3.73562e-06
-1.40706e-06
6.97035e-07
2.51932e-06
-3.88433e-06
1.00009e-06
4.9832e-06
-6.5307e-06
1.01981e-06
5.53396e-06
-8.78469e-06
9.54749e-07
4.79358e-06
-1.01829e-05
8.92935e-07
2.94261e-06
-1.02876e-05
8.65194e-07
6.96994e-08
-8.76719e-06
8.54676e-07
-3.52095e-06
-5.67468e-06
8.09915e-07
-6.63628e-06
-2.00342e-06
6.21919e-07
-7.17715e-06
1.54168e-07
-3.19346e-06
-9.4281e-07
4.05697e-07
2.31804e-06
-2.6567e-06
5.39383e-07
4.41129e-06
-4.54832e-06
5.45398e-07
4.95917e-06
-6.24118e-06
5.1492e-07
4.56587e-06
-7.39055e-06
4.9365e-07
3.37243e-06
-7.62663e-06
5.01303e-07
1.36223e-06
-6.62755e-06
5.25603e-07
-1.28584e-06
-4.3657e-06
5.20034e-07
-3.82844e-06
-1.56844e-06
3.90482e-07
-4.68226e-06
3.94058e-08
-2.24863e-06
-3.33699e-07
1.38722e-06
-1.00627e-06
2.41627e-06
-1.78537e-06
2.7178e-06
-2.53827e-06
2.65356e-06
-3.11666e-06
2.27709e-06
-3.32298e-06
1.52887e-06
-2.95786e-06
4.14266e-07
-1.95873e-06
-8.24567e-07
-6.67459e-07
-1.52387e-06
-8.88752e-07
-4.20312e-07
-5.33922e-07
2.34145e-06
-1.21257e-06
-6.92582e-07
3.90111e-06
-2.12143e-06
-6.52476e-07
4.27914e-06
-3.05236e-06
-5.30664e-07
4.11514e-06
-3.88778e-06
-3.98743e-07
3.51125e-06
-4.39937e-06
-3.09287e-07
2.34975e-06
-4.25147e-06
-2.87196e-07
5.5356e-07
-3.15009e-06
-3.28736e-07
-1.59721e-06
-1.29762e-06
-3.04303e-07
-3.07204e-06
-2.23144e-09
-2.18414e-06
-1.22465e-06
-8.95263e-07
3.90402e-06
-3.33738e-06
-1.24336e-06
7.07479e-06
-5.63453e-06
-1.16562e-06
7.76946e-06
-7.7593e-06
-9.12213e-07
7.07219e-06
-9.39441e-06
-6.18686e-07
5.22749e-06
-1.01142e-05
-3.8052e-07
2.15324e-06
-9.38056e-06
-2.60928e-07
-2.04574e-06
-6.78256e-06
-2.93467e-07
-6.46171e-06
-2.8184e-06
-3.26147e-07
-8.62458e-06
-5.5706e-08
-5.01355e-06
-1.84705e-06
-8.60878e-07
4.33198e-06
-4.94481e-06
-1.23792e-06
8.07552e-06
-8.18417e-06
-1.15331e-06
8.76101e-06
-1.09892e-05
-8.71794e-07
7.55816e-06
-1.29262e-05
-5.34313e-07
4.79521e-06
-1.35042e-05
-2.37648e-07
5.04841e-07
-1.22022e-05
-7.61706e-08
-5.00772e-06
-8.64401e-06
-1.01237e-07
-1.03867e-05
-3.53786e-06
-1.93968e-07
-1.24155e-05
-7.36829e-08
-6.71334e-06
-2.25052e-06
-5.11013e-07
4.39074e-06
-5.98032e-06
-7.47415e-07
8.26685e-06
-9.77841e-06
-6.9242e-07
8.83751e-06
-1.29159e-05
-5.1018e-07
7.26879e-06
-1.49023e-05
-2.88874e-07
3.95549e-06
-1.52752e-05
-9.07034e-08
-9.6108e-07
-1.35626e-05
1.93689e-08
-7.01391e-06
-9.4759e-06
1.53748e-09
-1.26897e-05
-3.82752e-06
-7.59761e-08
-1.44684e-05
-4.66029e-08
-7.59022e-06
-2.4441e-06
-1.13388e-12
4.37171e-06
-6.47616e-06
-1.3925e-12
8.25551e-06
-1.05267e-05
-1.30268e-12
8.74334e-06
-1.37898e-05
-1.05611e-12
6.99163e-06
-1.57565e-05
-7.78978e-13
3.43795e-06
-1.59949e-05
-5.46823e-13
-1.71401e-06
-1.40831e-05
-3.79002e-13
-7.92936e-06
-9.77839e-06
-2.73539e-13
-1.36646e-05
-3.92643e-06
-2.02365e-13
-1.53048e-05
-1.65748e-13
-7.94076e-06
-2.4441e-06
5.11011e-07
4.37171e-06
-6.47616e-06
7.47412e-07
8.25551e-06
-1.05267e-05
6.92417e-07
8.74334e-06
-1.37898e-05
5.10178e-07
6.99163e-06
-1.57565e-05
2.88872e-07
3.43795e-06
-1.59949e-05
9.07023e-08
-1.71401e-06
-1.40831e-05
-1.93697e-08
-7.92936e-06
-9.77839e-06
-1.53805e-09
-1.36646e-05
-3.92643e-06
7.59757e-08
-1.53048e-05
4.66026e-08
-7.94076e-06
-2.25052e-06
8.60876e-07
4.39074e-06
-5.98032e-06
1.23792e-06
8.26685e-06
-9.77841e-06
1.15331e-06
8.83751e-06
-1.29159e-05
8.71792e-07
7.26879e-06
-1.49023e-05
5.34312e-07
3.95549e-06
-1.52752e-05
2.37647e-07
-9.6108e-07
-1.35626e-05
7.617e-08
-7.01391e-06
-9.4759e-06
1.01237e-07
-1.26897e-05
-3.82752e-06
1.93968e-07
-1.44684e-05
7.36827e-08
-7.59022e-06
-1.84705e-06
8.9526e-07
4.33198e-06
-4.94481e-06
1.24336e-06
8.07552e-06
-8.18417e-06
1.16562e-06
8.76101e-06
-1.09892e-05
9.12212e-07
7.55816e-06
-1.29262e-05
6.18685e-07
4.79522e-06
-1.35042e-05
3.80519e-07
5.04841e-07
-1.22022e-05
2.60927e-07
-5.00772e-06
-8.64401e-06
2.93467e-07
-1.03867e-05
-3.53786e-06
3.26146e-07
-1.24155e-05
5.57057e-08
-6.71334e-06
-1.22465e-06
5.33919e-07
3.90403e-06
-3.33737e-06
6.92581e-07
7.0748e-06
-5.63453e-06
6.52474e-07
7.76947e-06
-7.75929e-06
5.30663e-07
7.07219e-06
-9.39441e-06
3.98742e-07
5.22749e-06
-1.01142e-05
3.09286e-07
2.15324e-06
-9.38056e-06
2.87196e-07
-2.04574e-06
-6.78256e-06
3.28736e-07
-6.46171e-06
-2.8184e-06
3.04303e-07
-8.62457e-06
2.23137e-09
-5.01355e-06
-4.2031e-07
2.34145e-06
-1.21257e-06
3.90111e-06
-2.12143e-06
4.27914e-06
-3.05236e-06
4.11515e-06
-3.88778e-06
3.51125e-06
-4.39937e-06
2.34975e-06
-4.25147e-06
5.5356e-07
-3.15009e-06
-1.59721e-06
-1.29761e-06
-3.07204e-06
-2.18414e-06
-5.18481e-07
-6.38919e-07
3.49885e-06
-1.37678e-06
-7.89582e-07
5.54899e-06
-2.33688e-06
-6.51224e-07
5.89046e-06
-3.4009e-06
-3.66283e-07
5.54545e-06
-4.54258e-06
-2.68109e-08
4.67974e-06
-5.54161e-06
2.48564e-07
3.10022e-06
-5.89778e-06
3.58004e-07
5.51723e-07
-4.93409e-06
2.20437e-07
-2.78133e-06
-2.44528e-06
-9.10985e-09
-5.55174e-06
6.39436e-09
-4.63581e-06
-1.47685e-06
-1.04973e-06
5.79168e-06
-3.84949e-06
-1.38393e-06
1.00418e-05
-6.37423e-06
-1.11657e-06
1.07596e-05
-8.81217e-06
-5.46125e-07
9.68996e-06
-1.09633e-05
1.25783e-07
7.226e-06
-1.24162e-05
6.98248e-07
3.15648e-06
-1.2401e-05
9.57606e-07
-2.66052e-06
-9.93729e-06
7.32887e-07
-9.4379e-06
-4.82288e-06
2.22202e-07
-1.39703e-05
6.89864e-09
-9.83693e-06
-2.20293e-06
-9.93583e-07
6.47876e-06
-5.69994e-06
-1.35162e-06
1.15402e-05
-9.26295e-06
-1.06738e-06
1.22748e-05
-1.24106e-05
-4.56558e-07
1.06162e-05
-1.4841e-05
2.60791e-07
7.09058e-06
-1.6112e-05
8.67537e-07
1.60656e-06
-1.55205e-05
1.13427e-06
-5.77588e-06
-1.21266e-05
8.91487e-07
-1.39391e-05
-5.81026e-06
3.37817e-07
-1.88475e-05
1.32651e-08
-1.253e-05
-2.66405e-06
-5.83486e-07
6.64469e-06
-6.86352e-06
-8.05454e-07
1.19202e-05
-1.10062e-05
-6.25703e-07
1.25386e-05
-1.44398e-05
-2.40514e-07
1.04863e-05
-1.68325e-05
2.09288e-07
6.39969e-06
-1.78009e-05
5.84578e-07
2.90222e-07
-1.67959e-05
7.36124e-07
-7.62072e-06
-1.29614e-05
5.74182e-07
-1.62068e-05
-6.17987e-06
2.28429e-07
-2.11406e-05
1.19075e-08
-1.37687e-05
-2.88057e-06
-8.34119e-13
6.66879e-06
-7.40638e-06
-1.10274e-12
1.19759e-05
-1.17951e-05
-1.09453e-12
1.25064e-05
-1.53102e-05
-9.19762e-13
1.02662e-05
-1.76207e-05
-6.74038e-13
5.95774e-06
-1.84066e-05
-4.29082e-13
-3.43464e-07
-1.72147e-05
-2.70529e-13
-8.38515e-06
-1.32322e-05
-1.97041e-13
-1.70729e-05
-6.30774e-06
-1.48996e-13
-2.20008e-05
-1.49096e-13
-1.42366e-05
-2.88057e-06
5.83484e-07
6.66879e-06
-7.40638e-06
8.05451e-07
1.19759e-05
-1.17951e-05
6.25701e-07
1.25064e-05
-1.53102e-05
2.40512e-07
1.02662e-05
-1.76207e-05
-2.0929e-07
5.95774e-06
-1.84066e-05
-5.84578e-07
-3.43463e-07
-1.72147e-05
-7.36124e-07
-8.38515e-06
-1.32322e-05
-5.74182e-07
-1.70729e-05
-6.30774e-06
-2.28429e-07
-2.20008e-05
-1.19078e-08
-1.42366e-05
-2.66405e-06
9.93581e-07
6.64469e-06
-6.86352e-06
1.35161e-06
1.19202e-05
-1.10062e-05
1.06738e-06
1.25386e-05
-1.44398e-05
4.56556e-07
1.04863e-05
-1.68325e-05
-2.60792e-07
6.39969e-06
-1.78009e-05
-8.67538e-07
2.90223e-07
-1.67959e-05
-1.13427e-06
-7.62072e-06
-1.29614e-05
-8.91488e-07
-1.62068e-05
-6.17987e-06
-3.37817e-07
-2.11406e-05
-1.32654e-08
-1.37687e-05
-2.20293e-06
1.04973e-06
6.47876e-06
-5.69993e-06
1.38392e-06
1.15402e-05
-9.26295e-06
1.11656e-06
1.22749e-05
-1.24106e-05
5.46124e-07
1.06162e-05
-1.4841e-05
-1.25783e-07
7.09058e-06
-1.6112e-05
-6.98249e-07
1.60656e-06
-1.55205e-05
-9.57607e-07
-5.77588e-06
-1.21266e-05
-7.32887e-07
-1.39391e-05
-5.81026e-06
-2.22202e-07
-1.88475e-05
-6.899e-09
-1.253e-05
-1.47685e-06
6.38918e-07
5.79169e-06
-3.84949e-06
7.89581e-07
1.00418e-05
-6.37423e-06
6.51223e-07
1.07596e-05
-8.81217e-06
3.66283e-07
9.68996e-06
-1.09633e-05
2.68107e-08
7.226e-06
-1.24162e-05
-2.48565e-07
3.15648e-06
-1.2401e-05
-3.58004e-07
-2.66051e-06
-9.93729e-06
-2.20437e-07
-9.4379e-06
-4.82288e-06
9.10972e-09
-1.39703e-05
-6.39433e-09
-9.83693e-06
-5.1848e-07
3.49885e-06
-1.37678e-06
5.54899e-06
-2.33688e-06
5.89046e-06
-3.4009e-06
5.54545e-06
-4.54258e-06
4.67974e-06
-5.54161e-06
3.10022e-06
-5.89778e-06
5.51723e-07
-4.93409e-06
-2.78133e-06
-2.44528e-06
-5.55174e-06
-4.63581e-06
-7.15552e-07
-7.21763e-07
4.93616e-06
-1.56022e-06
-8.2121e-07
7.21486e-06
-2.40451e-06
-5.22811e-07
7.25757e-06
-3.4462e-06
1.25089e-08
6.57463e-06
-4.8212e-06
6.40591e-07
5.41415e-06
-6.41058e-06
1.20941e-06
3.48018e-06
-7.59417e-06
1.4851e-06
2.50218e-07
-7.21503e-06
1.20481e-06
-4.36529e-06
-4.27088e-06
4.86503e-07
-8.98239e-06
-6.42781e-08
-8.84241e-06
-1.77983e-06
-1.15544e-06
8.00519e-06
-4.19975e-06
-1.41153e-06
1.3052e-05
-6.58777e-06
-8.64326e-07
1.34891e-05
-8.95539e-06
1.3404e-07
1.19361e-05
-1.13498e-05
1.29726e-06
8.96378e-06
-1.34982e-05
2.299e-06
4.21521e-06
-1.45561e-05
2.7263e-06
-2.84375e-06
-1.29793e-05
2.20304e-06
-1.20129e-05
-7.40148e-06
9.41382e-07
-2.0003e-05
-5.84265e-08
-1.72443e-05
-2.52344e-06
-1.07333e-06
8.92009e-06
-6.07887e-06
-1.35463e-06
1.50388e-05
-9.45376e-06
-7.96058e-07
1.55815e-05
-1.24064e-05
2.25019e-07
1.34779e-05
-1.48926e-05
1.38687e-06
9.48717e-06
-1.66773e-05
2.33574e-06
3.35452e-06
-1.70994e-05
2.65795e-06
-5.28539e-06
-1.47788e-05
2.07158e-06
-1.61283e-05
-8.34705e-06
8.67289e-07
-2.52051e-05
-2.8715e-08
-2.09067e-05
-2.97312e-06
-6.2262e-07
9.1671e-06
-7.20568e-06
-7.97301e-07
1.55954e-05
-1.10836e-05
-4.5362e-07
1.6074e-05
-1.41864e-05
1.71876e-07
1.36423e-05
-1.64623e-05
8.69417e-07
9.19306e-06
-1.78118e-05
1.41269e-06
2.56281e-06
-1.78065e-05
1.56044e-06
-6.52854e-06
-1.52329e-05
1.17778e-06
-1.78867e-05
-8.64316e-06
4.79927e-07
-2.73429e-05
-7.86559e-09
-2.24327e-05
-3.176e-06
-6.38926e-13
9.22217e-06
-7.70936e-06
-8.61999e-13
1.57119e-05
-1.17805e-05
-8.91346e-13
1.61239e-05
-1.48847e-05
-7.39228e-13
1.35423e-05
-1.69932e-05
-5.04514e-13
8.93561e-06
-1.8106e-05
-3.00858e-13
2.18209e-06
-1.79394e-05
-1.65714e-13
-6.99132e-06
-1.53352e-05
-1.0765e-13
-1.84993e-05
-8.75145e-06
-9.42524e-14
-2.81046e-05
-1.41731e-13
-2.29959e-05
-3.176e-06
6.22619e-07
9.22217e-06
-7.70936e-06
7.973e-07
1.57119e-05
-1.17805e-05
4.53618e-07
1.61239e-05
-1.48847e-05
-1.71878e-07
1.35423e-05
-1.69932e-05
-8.69418e-07
8.93561e-06
-1.8106e-05
-1.41269e-06
2.18209e-06
-1.79394e-05
-1.56044e-06
-6.99132e-06
-1.53352e-05
-1.17778e-06
-1.84993e-05
-8.75145e-06
-4.79927e-07
-2.81046e-05
7.86534e-09
-2.29959e-05
-2.97312e-06
1.07332e-06
9.1671e-06
-7.20568e-06
1.35463e-06
1.55954e-05
-1.10836e-05
7.96057e-07
1.6074e-05
-1.41864e-05
-2.2502e-07
1.36423e-05
-1.64623e-05
-1.38687e-06
9.19306e-06
-1.78118e-05
-2.33574e-06
2.56281e-06
-1.78065e-05
-2.65795e-06
-6.52854e-06
-1.52329e-05
-2.07158e-06
-1.78867e-05
-8.64316e-06
-8.67289e-07
-2.73429e-05
2.87147e-08
-2.24327e-05
-2.52344e-06
1.15544e-06
8.92009e-06
-6.07887e-06
1.41153e-06
1.50388e-05
-9.45376e-06
8.64325e-07
1.55815e-05
-1.24064e-05
-1.34041e-07
1.34779e-05
-1.48926e-05
-1.29726e-06
9.48717e-06
-1.66773e-05
-2.299e-06
3.35452e-06
-1.70994e-05
-2.7263e-06
-5.28539e-06
-1.47788e-05
-2.20304e-06
-1.61283e-05
-8.34705e-06
-9.41382e-07
-2.52051e-05
5.84263e-08
-2.09067e-05
-1.77983e-06
7.21762e-07
8.00519e-06
-4.19975e-06
8.21209e-07
1.3052e-05
-6.58777e-06
5.22811e-07
1.34891e-05
-8.95539e-06
-1.25093e-08
1.19361e-05
-1.13498e-05
-6.40592e-07
8.96378e-06
-1.34982e-05
-1.20941e-06
4.21521e-06
-1.45561e-05
-1.4851e-06
-2.84375e-06
-1.29793e-05
-1.20481e-06
-1.20129e-05
-7.40148e-06
-4.86503e-07
-2.0003e-05
6.4278e-08
-1.72443e-05
-7.15552e-07
4.93616e-06
-1.56022e-06
7.21486e-06
-2.40451e-06
7.25757e-06
-3.4462e-06
6.57463e-06
-4.8212e-06
5.41415e-06
-6.41058e-06
3.48018e-06
-7.59417e-06
2.50218e-07
-7.21503e-06
-4.36529e-06
-4.27088e-06
-8.98239e-06
-8.84241e-06
-1.25159e-06
-8.30146e-07
7.0179e-06
-1.89342e-06
-8.43017e-07
8.69971e-06
-2.26398e-06
-3.3769e-07
7.96582e-06
-2.89263e-06
4.85162e-07
6.71812e-06
-4.17237e-06
1.45837e-06
5.23551e-06
-6.19148e-06
2.39914e-06
3.10015e-06
-8.41418e-06
2.95047e-06
-4.77556e-07
-9.21354e-06
2.57879e-06
-6.14472e-06
-6.49528e-06
1.20629e-06
-1.29069e-05
-2.87666e-07
-1.505e-05
-2.42684e-06
-1.26154e-06
1.08634e-05
-4.49671e-06
-1.40623e-06
1.56851e-05
-6.04108e-06
-5.44339e-07
1.52401e-05
-7.50649e-06
8.80473e-07
1.30062e-05
-9.31049e-06
2.51338e-06
9.71277e-06
-1.15202e-05
3.94168e-06
4.8824e-06
-1.35503e-05
4.57682e-06
-2.43999e-06
-1.3669e-05
3.75561e-06
-1.30711e-05
-9.28666e-06
1.58988e-06
-2.47689e-05
-4.06027e-07
-2.64126e-05
-3.07342e-06
-1.13522e-06
1.18672e-05
-6.14316e-06
-1.31654e-06
1.80188e-05
-8.44799e-06
-4.80236e-07
1.78222e-05
-1.01829e-05
9.00043e-07
1.51933e-05
-1.16928e-05
2.4257e-06
1.10847e-05
-1.31584e-05
3.64793e-06
5.11393e-06
-1.43298e-05
4.02321e-06
-3.56035e-06
-1.39281e-05
3.09527e-06
-1.58697e-05
-9.48241e-06
1.17973e-06
-2.92407e-05
-3.27452e-07
-3.04677e-05
-3.42966e-06
-6.46275e-07
1.21078e-05
-7.05216e-06
-7.62938e-07
1.86643e-05
-9.7006e-06
-2.63898e-07
1.85061e-05
-1.14017e-05
5.55691e-07
1.56877e-05
-1.25076e-05
1.43602e-06
1.12886e-05
-1.33784e-05
2.09704e-06
4.98458e-06
-1.40779e-05
2.23188e-06
-4.0378e-06
-1.36184e-05
1.63969e-06
-1.68906e-05
-9.45001e-06
5.81258e-07
-3.09128e-05
-1.65811e-07
-3.20444e-05
-3.57954e-06
-5.28537e-13
1.21554e-05
-7.43128e-06
-6.97023e-13
1.88007e-05
-1.01911e-05
-7.4502e-13
1.86198e-05
-1.18127e-05
-6.21551e-13
1.57195e-05
-1.26819e-05
-4.22596e-13
1.12408e-05
-1.32826e-05
-2.48064e-13
4.87984e-06
-1.38412e-05
-1.07665e-13
-4.20081e-06
-1.34623e-05
-7.02717e-14
-1.72386e-05
-9.46727e-06
-8.23169e-14
-3.15184e-05
-1.40842e-13
-3.2629e-05
-3.57954e-06
6.46274e-07
1.21554e-05
-7.43128e-06
7.62937e-07
1.88007e-05
-1.01911e-05
2.63897e-07
1.86198e-05
-1.18127e-05
-5.55692e-07
1.57195e-05
-1.26819e-05
-1.43602e-06
1.12408e-05
-1.32826e-05
-2.09704e-06
4.87984e-06
-1.38412e-05
-2.23188e-06
-4.20081e-06
-1.34623e-05
-1.63969e-06
-1.72386e-05
-9.46727e-06
-5.81258e-07
-3.15184e-05
1.65811e-07
-3.2629e-05
-3.42966e-06
1.13522e-06
1.21078e-05
-7.05216e-06
1.31654e-06
1.86643e-05
-9.7006e-06
4.80234e-07
1.85061e-05
-1.14017e-05
-9.00044e-07
1.56877e-05
-1.25076e-05
-2.4257e-06
1.12886e-05
-1.33784e-05
-3.64793e-06
4.98458e-06
-1.40779e-05
-4.02321e-06
-4.0378e-06
-1.36184e-05
-3.09527e-06
-1.68906e-05
-9.45001e-06
-1.17974e-06
-3.09128e-05
3.27452e-07
-3.20444e-05
-3.07342e-06
1.26154e-06
1.18672e-05
-6.14316e-06
1.40623e-06
1.80188e-05
-8.44799e-06
5.44338e-07
1.78222e-05
-1.01829e-05
-8.80474e-07
1.51933e-05
-1.16928e-05
-2.51338e-06
1.10847e-05
-1.31584e-05
-3.94168e-06
5.11393e-06
-1.43298e-05
-4.57682e-06
-3.56035e-06
-1.39281e-05
-3.75561e-06
-1.58697e-05
-9.48241e-06
-1.58988e-06
-2.92407e-05
4.06027e-07
-3.04677e-05
-2.42684e-06
8.30146e-07
1.08634e-05
-4.49671e-06
8.43017e-07
1.56851e-05
-6.04108e-06
3.37689e-07
1.52401e-05
-7.50649e-06
-4.85163e-07
1.30062e-05
-9.31049e-06
-1.45837e-06
9.71278e-06
-1.15202e-05
-2.39914e-06
4.8824e-06
-1.35503e-05
-2.95047e-06
-2.43999e-06
-1.3669e-05
-2.57879e-06
-1.30711e-05
-9.28666e-06
-1.20629e-06
-2.47689e-05
2.87666e-07
-2.64126e-05
-1.25159e-06
7.0179e-06
-1.89342e-06
8.69971e-06
-2.26398e-06
7.96582e-06
-2.89263e-06
6.71812e-06
-4.17237e-06
5.23551e-06
-6.19148e-06
3.10015e-06
-8.41418e-06
-4.77555e-07
-9.21354e-06
-6.14472e-06
-6.49528e-06
-1.29069e-05
-1.505e-05
-2.49508e-06
-1.0897e-06
1.06027e-05
-2.28957e-06
-1.0802e-06
9.5744e-06
-1.36189e-06
-4.05197e-07
7.44335e-06
-8.02737e-07
6.46056e-07
5.51291e-06
-1.26858e-06
1.87533e-06
3.82603e-06
-3.10234e-06
3.12023e-06
1.81368e-06
-6.15318e-06
4.02132e-06
-1.44804e-06
-8.6785e-06
3.69527e-06
-7.31467e-06
-7.66647e-06
1.64499e-06
-1.55639e-05
-9.95144e-07
-2.17214e-05
-4.07769e-06
-1.52934e-06
1.53807e-05
-4.80131e-06
-1.66393e-06
1.69925e-05
-4.04233e-06
-6.24571e-07
1.47005e-05
-3.08227e-06
1.00679e-06
1.16854e-05
-2.79369e-06
2.86493e-06
8.43459e-06
-3.682e-06
4.55561e-06
4.33533e-06
-5.81543e-06
5.49826e-06
-1.78351e-06
-8.09977e-06
4.63143e-06
-1.17229e-05
-7.46386e-06
1.66632e-06
-2.54262e-05
-1.35163e-06
-3.35199e-05
-4.70282e-06
-1.29794e-06
1.63386e-05
-6.14657e-06
-1.47452e-06
1.92731e-05
-5.73447e-06
-5.25349e-07
1.73109e-05
-4.57171e-06
9.55322e-07
1.4082e-05
-3.4929e-06
2.56952e-06
1.03013e-05
-3.15339e-06
3.91472e-06
5.41531e-06
-4.01121e-06
4.4734e-06
-1.67769e-06
-5.86519e-06
3.49643e-06
-1.28807e-05
-6.04636e-06
1.06502e-06
-2.84582e-05
-9.9259e-07
-3.68731e-05
-4.96501e-06
-7.13404e-07
1.64883e-05
-6.77269e-06
-8.26767e-07
1.98242e-05
-6.51062e-06
-2.7929e-07
1.7998e-05
-5.16989e-06
5.67355e-07
1.47349e-05
-3.59575e-06
1.46237e-06
1.08217e-05
-2.5896e-06
2.16203e-06
5.73112e-06
-2.89627e-06
2.38322e-06
-1.64095e-06
-4.77687e-06
1.77386e-06
-1.32874e-05
-5.55197e-06
4.90545e-07
-2.95632e-05
-4.72611e-07
-3.81163e-05
-5.05457e-06
-4.73973e-13
1.64966e-05
-6.99394e-06
-6.28736e-13
1.99133e-05
-6.76354e-06
-6.7731e-13
1.81102e-05
-5.31375e-06
-5.65887e-13
1.48371e-05
-3.51599e-06
-4.16246e-13
1.09054e-05
-2.26415e-06
-2.75289e-13
5.79003e-06
-2.4361e-06
-1.54894e-13
-1.64564e-06
-4.44459e-06
-9.20275e-14
-1.34562e-05
-5.48198e-06
-8.48961e-14
-2.99905e-05
-1.38759e-13
-3.85836e-05
-5.05457e-06
7.13403e-07
1.64966e-05
-6.99394e-06
8.26766e-07
1.99133e-05
-6.76354e-06
2.79289e-07
1.81102e-05
-5.31375e-06
-5.67356e-07
1.48371e-05
-3.51599e-06
-1.46237e-06
1.09054e-05
-2.26415e-06
-2.16203e-06
5.79003e-06
-2.4361e-06
-2.38322e-06
-1.64564e-06
-4.44459e-06
-1.77386e-06
-1.34562e-05
-5.48198e-06
-4.90545e-07
-2.99905e-05
4.7261e-07
-3.85836e-05
-4.96501e-06
1.29794e-06
1.64883e-05
-6.77269e-06
1.47451e-06
1.98242e-05
-6.51062e-06
5.25348e-07
1.7998e-05
-5.16989e-06
-9.55323e-07
1.47349e-05
-3.59575e-06
-2.56952e-06
1.08217e-05
-2.5896e-06
-3.91472e-06
5.73112e-06
-2.89627e-06
-4.4734e-06
-1.64095e-06
-4.77687e-06
-3.49643e-06
-1.32874e-05
-5.55197e-06
-1.06502e-06
-2.95632e-05
9.9259e-07
-3.81163e-05
-4.70282e-06
1.52934e-06
1.63386e-05
-6.14657e-06
1.66393e-06
1.92731e-05
-5.73447e-06
6.24571e-07
1.73109e-05
-4.57171e-06
-1.00679e-06
1.4082e-05
-3.4929e-06
-2.86494e-06
1.03013e-05
-3.15339e-06
-4.55561e-06
5.41531e-06
-4.01121e-06
-5.49826e-06
-1.67769e-06
-5.86519e-06
-4.63143e-06
-1.28807e-05
-6.04636e-06
-1.66632e-06
-2.84582e-05
1.35163e-06
-3.68731e-05
-4.07769e-06
1.0897e-06
1.53807e-05
-4.80131e-06
1.0802e-06
1.69925e-05
-4.04233e-06
4.05197e-07
1.47005e-05
-3.08227e-06
-6.46056e-07
1.16854e-05
-2.79369e-06
-1.87533e-06
8.43459e-06
-3.682e-06
-3.12023e-06
4.33533e-06
-5.81543e-06
-4.02132e-06
-1.78351e-06
-8.09977e-06
-3.69527e-06
-1.17229e-05
-7.46386e-06
-1.64499e-06
-2.54262e-05
9.95144e-07
-3.35199e-05
-2.49508e-06
1.06027e-05
-2.28957e-06
9.5744e-06
-1.36189e-06
7.44335e-06
-8.02737e-07
5.51291e-06
-1.26858e-06
3.82603e-06
-3.10234e-06
1.81368e-06
-6.15318e-06
-1.44804e-06
-8.6785e-06
-7.31467e-06
-7.66647e-06
-1.55639e-05
-2.17214e-05
-2.68222e-06
-1.85638e-06
1.51413e-05
4.72408e-07
-1.97371e-06
8.39349e-06
4.48997e-06
-1.1937e-06
4.61949e-06
7.35005e-06
-1.47784e-07
2.80061e-06
8.55146e-06
1.08831e-06
1.53631e-06
7.64393e-06
2.37897e-06
3.42241e-07
4.34655e-06
3.55935e-06
-1.71001e-06
-6.18433e-07
3.47229e-06
-5.82198e-06
-3.47213e-06
9.34825e-07
-1.36451e-05
-2.70034e-06
-2.24931e-05
-4.80001e-06
-2.22608e-06
2.05505e-05
-8.47879e-07
-2.66356e-06
1.37302e-05
5.03058e-06
-1.76847e-06
9.39682e-06
1.01656e-05
-3.1236e-07
6.71486e-06
1.38524e-05
1.35482e-06
4.48131e-06
1.53946e-05
3.00543e-06
2.16669e-06
1.39689e-05
4.29134e-06
-1.08983e-06
9.26515e-06
3.8767e-06
-7.4235e-06
3.07037e-06
7.36292e-07
-1.90329e-05
-2.73354e-06
-3.04164e-05
-5.57016e-06
-1.70088e-06
2.13836e-05
-1.82556e-06
-2.16197e-06
1.50269e-05
4.20247e-06
-1.45181e-06
1.09662e-05
1.00114e-05
-2.63024e-07
8.22378e-06
1.48321e-05
1.0858e-06
5.74953e-06
1.78546e-05
2.35077e-06
3.04745e-06
1.7818e-05
3.21891e-06
-5.68644e-07
1.36346e-05
2.78651e-06
-7.60705e-06
5.6793e-06
4.72964e-07
-2.02396e-05
-1.70618e-06
-3.22212e-05
-5.76544e-06
-8.82133e-07
2.1435e-05
-2.16622e-06
-1.1511e-06
1.52141e-05
3.85583e-06
-7.65596e-07
1.12897e-05
9.86914e-06
-1.27813e-07