/*--------------------------------*- C++ -*----------------------------------*\
  =========                 |
  \\      /  F ield         | OpenFOAM: The Open Source CFD Toolbox
   \\    /   O peration     | Website:  https://openfoam.org
    \\  /    A nd           | Version:  9
     \\/     M anipulation  |
\*---------------------------------------------------------------------------*/
FoamFile
{
    format      ascii;
    class       surfaceScalarField;
    location    "0.83";
    object      phi;
}
// * * * * * * * * * * * * * * * * * * * * * * * * * * * * * * * * * * * * * //

dimensions      [0 3 -1 0 0 0 0];

internalField   nonuniform List<scalar> 
2700
(
-5.69389e-08
-1.09733e-07
1.66641e-07
-2.99998e-07
-1.23819e-07
3.66878e-07
-6.24968e-07
-1.24502e-07
4.49472e-07
-9.4684e-07
-1.4579e-07
4.67663e-07
-1.17529e-06
-1.98743e-07
4.27197e-07
-1.21009e-06
-2.77601e-07
3.12399e-07
-9.84124e-07
-3.54045e-07
1.28077e-07
-5.41241e-07
-3.77494e-07
-6.5388e-08
-1.02889e-07
-3.01118e-07
-1.37234e-07
-9.97098e-08
-3.17977e-09
-1.56481e-07
-2.39587e-07
2.86334e-07
-6.86354e-07
-3.19755e-07
7.25809e-07
-1.36011e-06
-3.41355e-07
8.90612e-07
-1.99356e-06
-3.8203e-07
8.69691e-07
-2.41164e-06
-4.65565e-07
6.84898e-07
-2.43627e-06
-5.80276e-07
3.27308e-07
-1.95817e-06
-6.78051e-07
-1.54101e-07
-1.08168e-06
-6.84219e-07
-5.69766e-07
-2.33542e-07
-5.41039e-07
-6.08215e-07
-2.19215e-07
-1.14037e-07
-2.36854e-07
-2.6233e-07
2.59596e-07
-9.65149e-07
-3.74283e-07
7.82824e-07
-1.86521e-06
-4.07855e-07
9.66563e-07
-2.68587e-06
-4.49573e-07
8.88201e-07
-3.19735e-06
-5.26119e-07
5.72036e-07
-3.17809e-06
-6.26909e-07
2.73691e-08
-2.49939e-06
-6.98771e-07
-6.57984e-07
-1.32738e-06
-6.84652e-07
-1.17158e-06
-2.49013e-07
-5.39875e-07
-1.07953e-06
-2.37634e-07
-2.30594e-07
-2.9284e-07
-1.6664e-07
1.9715e-07
-1.15387e-06
-2.44643e-07
7.31391e-07
-2.20075e-06
-2.68726e-07
9.07751e-07
-3.13597e-06
-2.94108e-07
7.79753e-07
-3.69437e-06
-3.37479e-07
3.69761e-07
-3.61716e-06
-3.9178e-07
-3.12337e-07
-2.78874e-06
-4.2822e-07
-1.09897e-06
-1.42143e-06
-4.13406e-07
-1.63856e-06
-2.20111e-07
-3.25902e-07
-1.4153e-06
-1.49174e-07
-3.0857e-07
-3.22144e-07
-9.88674e-13
1.55506e-07
-1.25033e-06
-6.38131e-13
6.83544e-07
-2.37002e-06
-6.28323e-13
8.50964e-07
-3.35932e-06
-5.43334e-13
6.95194e-07
-3.93442e-06
-4.38903e-13
2.37622e-07
-3.82289e-06
-3.28692e-13
-5.03318e-07
-2.91283e-06
-2.32428e-13
-1.33827e-06
-1.44864e-06
-1.52379e-13
-1.8776e-06
-1.95498e-07
-1.09894e-13
-1.57905e-06
-1.0753e-13
-3.44672e-07
-3.22144e-07
1.66638e-07
1.55506e-07
-1.25033e-06
2.44641e-07
6.83544e-07
-2.37002e-06
2.68725e-07
8.50964e-07
-3.35932e-06
2.94107e-07
6.95194e-07
-3.93442e-06
3.37479e-07
2.37623e-07
-3.82289e-06
3.9178e-07
-5.03318e-07
-2.91283e-06
4.28219e-07
-1.33827e-06
-1.44864e-06
4.13405e-07
-1.8776e-06
-1.95498e-07
3.25902e-07
-1.57905e-06
1.49174e-07
-3.44672e-07
-2.9284e-07
2.62327e-07
1.9715e-07
-1.15387e-06
3.74281e-07
7.31391e-07
-2.20075e-06
4.07853e-07
9.07751e-07
-3.13597e-06
4.49572e-07
7.79753e-07
-3.69437e-06
5.26118e-07
3.69761e-07
-3.61716e-06
6.26909e-07
-3.12337e-07
-2.78874e-06
6.98771e-07
-1.09897e-06
-1.42143e-06
6.84652e-07
-1.63856e-06
-2.20111e-07
5.39875e-07
-1.4153e-06
2.37634e-07
-3.0857e-07
-2.36853e-07
2.39583e-07
2.59597e-07
-9.65149e-07
3.19753e-07
7.82824e-07
-1.86521e-06
3.41353e-07
9.66563e-07
-2.68587e-06
3.82029e-07
8.88202e-07
-3.19735e-06
4.65564e-07
5.72037e-07
-3.17809e-06
5.80276e-07
2.73693e-08
-2.49939e-06
6.7805e-07
-6.57984e-07
-1.32738e-06
6.84219e-07
-1.17158e-06
-2.49013e-07
5.41039e-07
-1.07953e-06
2.19215e-07
-2.30594e-07
-1.56477e-07
1.09723e-07
2.86338e-07
-6.86352e-07
1.23817e-07
7.2581e-07
-1.36011e-06
1.24501e-07
8.90612e-07
-1.99356e-06
1.4579e-07
8.69691e-07
-2.41164e-06
1.98743e-07
6.84899e-07
-2.43627e-06
2.77601e-07
3.27308e-07
-1.95817e-06
3.54045e-07
-1.541e-07
-1.08168e-06
3.77494e-07
-5.69766e-07
-2.33542e-07
3.01118e-07
-6.08215e-07
9.97097e-08
-1.14037e-07
-5.69294e-08
1.66652e-07
-2.99994e-07
3.6688e-07
-6.24966e-07
4.49473e-07
-9.46839e-07
4.67663e-07
-1.17529e-06
4.27197e-07
-1.21009e-06
3.12399e-07
-9.84123e-07
1.28077e-07
-5.41241e-07
-6.53881e-08
-1.02889e-07
-1.37234e-07
-3.17979e-09
-2.17435e-07
-2.86783e-07
6.70859e-07
-7.17581e-07
-3.84992e-07
1.25202e-06
-1.32345e-06
-4.00087e-07
1.45543e-06
-1.90328e-06
-4.06267e-07
1.45376e-06
-2.30972e-06
-4.35562e-07
1.2692e-06
-2.37915e-06
-4.90891e-07
8.72724e-07
-1.99504e-06
-5.43989e-07
2.87957e-07
-1.19986e-06
-5.35943e-07
-3.24631e-07
-3.31317e-07
-3.98155e-07
-6.07619e-07
-8.69588e-08
-2.47539e-07
-6.00984e-07
-5.26354e-07
1.12689e-06
-1.82553e-06
-7.66017e-07
2.33137e-06
-3.23324e-06
-8.10443e-07
2.70868e-06
-4.49197e-06
-8.21211e-07
2.54337e-06
-5.28571e-06
-8.62307e-07
1.90538e-06
-5.3145e-06
-9.35882e-07
8.01089e-07
-4.39704e-06
-9.97801e-07
-6.17748e-07
-2.66862e-06
-9.54099e-07
-1.88003e-06
-8.22213e-07
-7.20704e-07
-2.13207e-06
-2.3633e-07
-7.86878e-07
-8.99918e-07
-5.37665e-07
1.17082e-06
-2.65576e-06
-8.15774e-07
2.58842e-06
-4.60755e-06
-8.70957e-07
2.97887e-06
-6.27594e-06
-8.79686e-07
2.61506e-06
-7.241e-06
-9.10845e-07
1.58564e-06
-7.15495e-06
-9.66985e-07
-2.75759e-08
-5.81108e-06
-9.97497e-07
-2.00215e-06
-3.45923e-06
-9.35104e-07
-3.54242e-06
-1.03818e-06
-7.14419e-07
-3.50687e-06
-2.75421e-07
-1.22968e-06
-1.10091e-06
-3.31258e-07
1.09166e-06
-3.21305e-06
-5.127e-07
2.54045e-06
-5.51165e-06
-5.49481e-07
2.88487e-06
-7.41481e-06
-5.53137e-07
2.35637e-06
-8.44499e-06
-5.66879e-07
1.05597e-06
-8.22652e-06
-5.92695e-07
-9.05099e-07
-6.57822e-06
-5.99765e-07
-3.145e-06
-3.83586e-06
-5.55971e-07
-4.76004e-06
-1.10313e-06
-4.28138e-07
-4.43431e-06
-1.77697e-07
-1.50942e-06
-1.20181e-06
-7.44709e-13
1.02605e-06
-3.49305e-06
-4.60125e-13
2.46209e-06
-5.96043e-06
-4.35161e-13
2.76886e-06
-7.96854e-06
-3.55118e-13
2.15017e-06
-9.01521e-06
-2.6313e-13
7.17413e-07
-8.71333e-06
-1.79974e-13
-1.3979e-06
-6.90727e-06
-1.16055e-13
-3.7441e-06
-3.97945e-06
-7.27989e-14
-5.36139e-06
-1.114e-06
-6.50643e-14
-4.87263e-06
-8.06442e-14
-1.63637e-06
-1.20181e-06
3.31256e-07
1.02605e-06
-3.49305e-06
5.12699e-07
2.46209e-06
-5.96043e-06
5.4948e-07
2.76886e-06
-7.96854e-06
5.53136e-07
2.15017e-06
-9.01521e-06
5.66878e-07
7.17413e-07
-8.71333e-06
5.92695e-07
-1.3979e-06
-6.90727e-06
5.99764e-07
-3.7441e-06
-3.97945e-06
5.55971e-07
-5.36139e-06
-1.114e-06
4.28138e-07
-4.87263e-06
1.77696e-07
-1.63637e-06
-1.10091e-06
5.37664e-07
1.09166e-06
-3.21305e-06
8.15773e-07
2.54045e-06
-5.51165e-06
8.70956e-07
2.88487e-06
-7.41481e-06
8.79685e-07
2.35637e-06
-8.44499e-06
9.10844e-07
1.05597e-06
-8.22652e-06
9.66985e-07
-9.05099e-07
-6.57822e-06
9.97497e-07
-3.145e-06
-3.83586e-06
9.35104e-07
-4.76004e-06
-1.10313e-06
7.14419e-07
-4.43431e-06
2.7542e-07
-1.50942e-06
-8.99918e-07
5.26352e-07
1.17083e-06
-2.65576e-06
7.66015e-07
2.58842e-06
-4.60755e-06
8.10442e-07
2.97887e-06
-6.27594e-06
8.21211e-07
2.61506e-06
-7.241e-06
8.62306e-07
1.58564e-06
-7.15495e-06
9.35882e-07
-2.75758e-08
-5.81108e-06
9.97801e-07
-2.00215e-06
-3.45923e-06
9.54099e-07
-3.54242e-06
-1.03818e-06
7.20704e-07
-3.50687e-06
2.3633e-07
-1.22968e-06
-6.00982e-07
2.8678e-07
1.12689e-06
-1.82552e-06
3.84991e-07
2.33138e-06
-3.23324e-06
4.00086e-07
2.70868e-06
-4.49197e-06
4.06267e-07
2.54337e-06
-5.28571e-06
4.35562e-07
1.90538e-06
-5.3145e-06
4.9089e-07
8.01089e-07
-4.39704e-06
5.43989e-07
-6.17748e-07
-2.66862e-06
5.35943e-07
-1.88003e-06
-8.22212e-07
3.98155e-07
-2.13207e-06
8.69585e-08
-7.86878e-07
-2.17432e-07
6.70863e-07
-7.17579e-07
1.25202e-06
-1.32345e-06
1.45543e-06
-1.90327e-06
1.45376e-06
-2.30972e-06
1.2692e-06
-2.37915e-06
8.72724e-07
-1.99504e-06
2.87957e-07
-1.19986e-06
-3.24631e-07
-3.31317e-07
-6.07619e-07
-2.47539e-07
-3.30326e-07
-4.36572e-07
1.43776e-06
-1.00041e-06
-5.88206e-07
2.51031e-06
-1.78605e-06
-5.87833e-07
2.82889e-06
-2.5546e-06
-5.40737e-07
2.76304e-06
-3.15016e-06
-5.04111e-07
2.36887e-06
-3.36615e-06
-5.03267e-07
1.59198e-06
-2.99782e-06
-5.26528e-07
4.46155e-07
-1.98379e-06
-5.23462e-07
-8.15198e-07
-6.74306e-07
-3.95196e-07
-1.52191e-06
-4.04024e-08
-8.81442e-07
-9.58089e-07
-7.63016e-07
2.41142e-06
-2.70575e-06
-1.10026e-06
4.59109e-06
-4.63869e-06
-1.10506e-06
5.15885e-06
-6.36812e-06
-1.0044e-06
4.73646e-06
-7.53666e-06
-9.09367e-07
3.47917e-06
-7.76811e-06
-8.60903e-07
1.39018e-06
-6.73971e-06
-8.46849e-07
-1.32583e-06
-4.43194e-06
-8.06913e-07
-3.90436e-06
-1.58883e-06
-6.24539e-07
-4.74583e-06
-1.55518e-07
-2.26059e-06
-1.46085e-06
-7.56708e-07
2.62536e-06
-4.02632e-06
-1.13019e-06
5.18382e-06
-6.75244e-06
-1.13628e-06
5.73621e-06
-9.05088e-06
-1.02013e-06
4.92923e-06
-1.04473e-05
-8.99079e-07
2.97174e-06
-1.05195e-05
-8.14142e-07
-2.09577e-09
-8.93571e-06
-7.55928e-07
-3.67688e-06
-5.76988e-06
-6.99704e-07
-6.81546e-06
-2.03264e-06
-5.5718e-07
-7.31146e-06
-1.90747e-07
-3.22709e-06
-1.80194e-06
-4.58329e-07
2.59522e-06
-4.91485e-06
-6.96201e-07
5.21938e-06
-8.13532e-06
-6.99263e-07
5.66832e-06
-1.07362e-05
-6.21584e-07
4.55874e-06
-1.21884e-05
-5.36357e-07
2.14537e-06
-1.20638e-05
-4.6803e-07
-1.37575e-06
-1.00876e-05
-4.19078e-07
-5.45806e-06
-6.41122e-06
-3.82128e-07
-8.75401e-06
-2.207e-06
-3.11963e-07
-8.88375e-06
-1.23619e-07
-3.78355e-06
-1.97266e-06
-7.24913e-13
2.54038e-06
-5.35779e-06
-4.33706e-13
5.15103e-06
-8.81221e-06
-3.98384e-13
5.52402e-06
-1.15378e-05
-3.20106e-13
4.25415e-06
-1.29838e-05
-2.38296e-13
1.6271e-06
-1.27379e-05
-1.64763e-13
-2.11183e-06
-1.0563e-05
-1.13281e-13
-6.33811e-06
-6.65706e-06
-8.53812e-14
-9.64944e-06
-2.2619e-06
-8.10144e-14
-9.57976e-06
-9.27724e-14
-4.02189e-06
-1.97266e-06
4.58328e-07
2.54038e-06
-5.35779e-06
6.962e-07
5.15103e-06
-8.81221e-06
6.99262e-07
5.52402e-06
-1.15378e-05
6.21583e-07
4.25415e-06
-1.29838e-05
5.36356e-07
1.6271e-06
-1.27379e-05
4.6803e-07
-2.11183e-06
-1.0563e-05
4.19078e-07
-6.33811e-06
-6.65706e-06
3.82128e-07
-9.64944e-06
-2.2619e-06
3.11963e-07
-9.57976e-06
1.23618e-07
-4.02189e-06
-1.80194e-06
7.56707e-07
2.59522e-06
-4.91485e-06
1.13018e-06
5.21938e-06
-8.13532e-06
1.13628e-06
5.66832e-06
-1.07362e-05
1.02013e-06
4.55874e-06
-1.21884e-05
8.99078e-07
2.14537e-06
-1.20638e-05
8.14141e-07
-1.37575e-06
-1.00876e-05
7.55928e-07
-5.45806e-06
-6.41122e-06
6.99704e-07
-8.75401e-06
-2.207e-06
5.5718e-07
-8.88375e-06
1.90747e-07
-3.78355e-06
-1.46085e-06
7.63014e-07
2.62536e-06
-4.02632e-06
1.10026e-06
5.18382e-06
-6.75244e-06
1.10506e-06
5.73621e-06
-9.05088e-06
1.0044e-06
4.92923e-06
-1.04473e-05
9.09367e-07
2.97174e-06
-1.05195e-05
8.60903e-07
-2.09567e-09
-8.93571e-06
8.46849e-07
-3.67688e-06
-5.76988e-06
8.06912e-07
-6.81546e-06
-2.03264e-06
6.24538e-07
-7.31146e-06
1.55518e-07
-3.22709e-06
-9.58088e-07
4.36571e-07
2.41142e-06
-2.70575e-06
5.88205e-07
4.59109e-06
-4.63869e-06
5.87832e-07
5.15885e-06
-6.36812e-06
5.40736e-07
4.73646e-06
-7.53666e-06
5.04111e-07
3.47917e-06
-7.76811e-06
5.03266e-07
1.39018e-06
-6.73971e-06
5.26528e-07
-1.32583e-06
-4.43194e-06
5.23462e-07
-3.90436e-06
-1.58883e-06
3.95195e-07
-4.74583e-06
4.04021e-08
-2.26059e-06
-3.30325e-07
1.43776e-06
-1.00041e-06
2.51031e-06
-1.78604e-06
2.82889e-06
-2.5546e-06
2.76304e-06
-3.15016e-06
2.36887e-06
-3.36615e-06
1.59198e-06
-2.99782e-06
4.46155e-07
-1.98379e-06
-8.15197e-07
-6.74305e-07
-1.52191e-06
-8.81442e-07
-4.11958e-07
-5.65931e-07
2.41565e-06
-1.19391e-06
-7.3926e-07
4.03153e-06
-2.10447e-06
-6.82177e-07
4.42162e-06
-3.05206e-06
-5.30492e-07
4.24113e-06
-3.91114e-06
-3.74313e-07
3.60225e-06
-4.44174e-06
-2.74028e-07
2.39661e-06
-4.30002e-06
-2.54352e-07
5.58795e-07
-3.18715e-06
-3.07272e-07
-1.6208e-06
-1.31231e-06
-2.95077e-07
-3.10166e-06
1.0957e-09
-2.19485e-06
-1.23407e-06
-9.63528e-07
4.04309e-06
-3.36983e-06
-1.33804e-06
7.32563e-06
-5.69795e-06
-1.22297e-06
8.02776e-06
-7.85447e-06
-9.06649e-07
7.26914e-06
-9.51333e-06
-5.6156e-07
5.32529e-06
-1.02413e-05
-3.01901e-07
2.14606e-06
-9.49544e-06
-1.87652e-07
-2.13843e-06
-6.8627e-06
-2.44047e-07
-6.60032e-06
-2.85008e-06
-3.02168e-07
-8.75136e-06
-4.76949e-08
-5.06189e-06
-1.89907e-06
-9.37732e-07
4.49863e-06
-5.07573e-06
-1.34177e-06
8.36421e-06
-8.37771e-06
-1.21287e-06
9.0281e-06
-1.121e-05
-8.59636e-07
7.71452e-06
-1.31433e-05
-4.63901e-07
4.80739e-06
-1.36929e-05
-1.4227e-07
3.87856e-07
-1.23558e-05
1.01576e-08
-5.2118e-06
-8.7472e-06
-4.43971e-08
-1.06237e-05
-3.57957e-06
-1.66152e-07
-1.26151e-05
-6.49005e-08
-6.78946e-06
-2.34831e-06
-5.61073e-07
4.56687e-06
-6.21123e-06
-8.13941e-07
8.55448e-06
-1.00941e-05
-7.28947e-07
9.06726e-06
-1.32413e-05
-4.99463e-07
7.34582e-06
-1.51845e-05
-2.40426e-07
3.86508e-06
-1.54984e-05
-2.61249e-08
-1.17802e-06
-1.37297e-05
7.42911e-08
-7.29093e-06
-9.5872e-06
3.75107e-08
-1.29784e-05
-3.87428e-06
-5.81166e-08
-1.47047e-05
-4.10477e-08
-7.68168e-06
-2.57066e-06
-6.34134e-13
4.54997e-06
-6.76801e-06
-3.69579e-13
8.53444e-06
-1.09132e-05
-3.32757e-13
8.94027e-06
-1.41706e-05
-2.75504e-13
7.01208e-06
-1.6068e-05
-2.20406e-13
3.28408e-06
-1.62264e-05
-1.59543e-13
-1.97961e-06
-1.42519e-05
-1.17736e-13
-8.23826e-06
-9.89178e-06
-9.37919e-14
-1.39721e-05
-3.97538e-06
-5.6803e-14
-1.55543e-05
-4.91718e-14
-8.03831e-06
-2.57066e-06
5.61071e-07
4.54997e-06
-6.76801e-06
8.1394e-07
8.53444e-06
-1.09132e-05
7.28947e-07
8.94027e-06
-1.41706e-05
4.99463e-07
7.01208e-06
-1.6068e-05
2.40425e-07
3.28408e-06
-1.62264e-05
2.61246e-08
-1.97961e-06
-1.42519e-05
-7.42914e-08
-8.23826e-06
-9.89178e-06
-3.75109e-08
-1.39721e-05
-3.97538e-06
5.81166e-08
-1.55543e-05
4.10476e-08
-8.03831e-06
-2.34831e-06
9.37731e-07
4.56687e-06
-6.21123e-06
1.34177e-06
8.55448e-06
-1.00941e-05
1.21287e-06
9.06726e-06
-1.32413e-05
8.59636e-07
7.34582e-06
-1.51845e-05
4.63901e-07
3.86508e-06
-1.54984e-05
1.4227e-07
-1.17802e-06
-1.37297e-05
-1.01576e-08
-7.29093e-06
-9.5872e-06
4.43973e-08
-1.29784e-05
-3.87428e-06
1.66152e-07
-1.47047e-05
6.49004e-08
-7.68168e-06
-1.89907e-06
9.63527e-07
4.49863e-06
-5.07573e-06
1.33804e-06
8.36421e-06
-8.37771e-06
1.22296e-06
9.0281e-06
-1.121e-05
9.06649e-07
7.71452e-06
-1.31433e-05
5.6156e-07
4.80739e-06
-1.36929e-05
3.01901e-07
3.87856e-07
-1.23558e-05
1.87652e-07
-5.2118e-06
-8.7472e-06
2.44047e-07
-1.06237e-05
-3.57957e-06
3.02167e-07
-1.26151e-05
4.76946e-08
-6.78946e-06
-1.23407e-06
5.65931e-07
4.04309e-06
-3.36983e-06
7.3926e-07
7.32563e-06
-5.69795e-06
6.82176e-07
8.02776e-06
-7.85447e-06
5.30491e-07
7.26914e-06
-9.51333e-06
3.74312e-07
5.32529e-06
-1.02413e-05
2.74028e-07
2.14606e-06
-9.49544e-06
2.54352e-07
-2.13843e-06
-6.8627e-06
3.07272e-07
-6.60032e-06
-2.85008e-06
2.95077e-07
-8.75136e-06
-1.09558e-09
-5.06188e-06
-4.11958e-07
2.41565e-06
-1.19391e-06
4.03153e-06
-2.10447e-06
4.42162e-06
-3.05206e-06
4.24113e-06
-3.91114e-06
3.60226e-06
-4.44173e-06
2.39661e-06
-4.30002e-06
5.58796e-07
-3.18715e-06
-1.6208e-06
-1.31231e-06
-3.10166e-06
-2.19485e-06
-5.01345e-07
-6.63703e-07
3.58069e-06
-1.33686e-06
-8.2222e-07
5.68926e-06
-2.29076e-06
-6.57093e-07
6.03262e-06
-3.37111e-06
-3.34088e-07
5.65556e-06
-4.54395e-06
3.37724e-08
4.74132e-06
-5.57217e-06
3.13923e-07
3.11091e-06
-5.94403e-06
4.12395e-07
5.18254e-07
-4.97557e-06
2.53965e-07
-2.84323e-06
-2.46551e-06
7.09896e-09
-5.61882e-06
1.08013e-08
-4.67116e-06
-1.46521e-06
-1.10606e-06
5.95066e-06
-3.83121e-06
-1.45209e-06
1.03215e-05
-6.3635e-06
-1.12698e-06
1.10299e-05
-8.82448e-06
-4.76262e-07
9.87229e-06
-1.10056e-05
2.50394e-07
7.28978e-06
-1.24857e-05
8.32279e-07
3.10783e-06
-1.2483e-05
1.06529e-06
-2.79409e-06
-1.00083e-05
7.98226e-07
-9.61925e-06
-4.85847e-06
2.50917e-07
-1.4145e-05
1.41533e-08
-9.92371e-06
-2.22542e-06
-1.05882e-06
6.67682e-06
-5.75817e-06
-1.42714e-06
1.1872e-05
-9.34438e-06
-1.07551e-06
1.25628e-05
-1.24967e-05
-3.74164e-07
1.07648e-05
-1.49235e-05
4.00982e-07
7.08357e-06
-1.61919e-05
1.01255e-06
1.47598e-06
-1.56009e-05
1.24538e-06
-5.9829e-06
-1.21981e-05
9.54936e-07
-1.41831e-05
-5.85024e-06
3.64399e-07
-1.90765e-05
2.0766e-08
-1.26463e-05
-2.72679e-06
-6.26476e-07
6.8613e-06
-7.00527e-06
-8.53862e-07
1.22597e-05
-1.11781e-05
-6.2902e-07
1.27936e-05
-1.45849e-05
-1.84737e-07
1.05632e-05
-1.69316e-05
3.01315e-07
6.3114e-06
-1.78656e-05
6.80004e-07
8.8513e-08
-1.68565e-05
8.04289e-07
-7.85892e-06
-1.30238e-05
6.10808e-07
-1.6467e-05
-6.22093e-06
2.43002e-07
-2.13862e-05
1.6268e-08
-1.38981e-05
-2.96908e-06
-5.163e-13
6.89257e-06
-7.59942e-06
-3.07669e-13
1.23109e-05
-1.20185e-05
-2.70352e-13
1.27303e-05
-1.54825e-05
-2.34076e-13
1.02914e-05
-1.77158e-05
-2.00667e-13
5.81868e-06
-1.84561e-05
-1.53303e-13
-5.59284e-07
-1.72586e-05
-1.07702e-13
-8.6315e-06
-1.32873e-05
-5.96639e-14
-1.73326e-05
-6.34897e-06
-1.78847e-14
-2.22496e-05
-6.48181e-15
-1.4371e-05
-2.96908e-06
6.26475e-07
6.89257e-06
-7.59942e-06
8.53861e-07
1.23109e-05
-1.20185e-05
6.2902e-07
1.27303e-05
-1.54825e-05
1.84737e-07
1.02914e-05
-1.77158e-05
-3.01315e-07
5.81868e-06
-1.84561e-05
-6.80004e-07
-5.59284e-07
-1.72586e-05
-8.04289e-07
-8.6315e-06
-1.32873e-05
-6.10808e-07
-1.73326e-05
-6.34897e-06
-2.43002e-07
-2.22496e-05
-1.62681e-08
-1.4371e-05
-2.72678e-06
1.05882e-06
6.8613e-06
-7.00527e-06
1.42714e-06
1.22597e-05
-1.11781e-05
1.07551e-06
1.27936e-05
-1.45849e-05
3.74164e-07
1.05632e-05
-1.69316e-05
-4.00982e-07
6.3114e-06
-1.78656e-05
-1.01255e-06
8.8513e-08
-1.68565e-05
-1.24538e-06
-7.85892e-06
-1.30238e-05
-9.54936e-07
-1.6467e-05
-6.22093e-06
-3.64399e-07
-2.13862e-05
-2.07663e-08
-1.38981e-05
-2.22542e-06
1.10606e-06
6.67682e-06
-5.75817e-06
1.45209e-06
1.1872e-05
-9.34438e-06
1.12698e-06
1.25628e-05
-1.24967e-05
4.76261e-07
1.07648e-05
-1.49235e-05
-2.50394e-07
7.08357e-06
-1.61919e-05
-8.32279e-07
1.47598e-06
-1.56009e-05
-1.06529e-06
-5.9829e-06
-1.21981e-05
-7.98226e-07
-1.41831e-05
-5.85024e-06
-2.50917e-07
-1.90765e-05
-1.41533e-08
-1.26463e-05
-1.46521e-06
6.63703e-07
5.95066e-06
-3.8312e-06
8.2222e-07
1.03215e-05
-6.3635e-06
6.57093e-07
1.10299e-05
-8.82448e-06
3.34087e-07
9.87229e-06
-1.10056e-05
-3.37727e-08
7.28978e-06
-1.24857e-05
-3.13923e-07
3.10783e-06
-1.2483e-05
-4.12395e-07
-2.79409e-06
-1.00083e-05
-2.53965e-07
-9.61925e-06
-4.85847e-06
-7.09995e-09
-1.4145e-05
-1.08008e-08
-9.92371e-06
-5.01345e-07
3.58069e-06
-1.33686e-06
5.68926e-06
-2.29076e-06
6.03262e-06
-3.37111e-06
5.65556e-06
-4.54395e-06
4.74132e-06
-5.57217e-06
3.11091e-06
-5.94403e-06
5.18254e-07
-4.97557e-06
-2.84323e-06
-2.46551e-06
-5.61882e-06
-4.67116e-06
-6.90206e-07
-7.33435e-07
5.00433e-06
-1.49841e-06
-8.33996e-07
7.33145e-06
-2.3285e-06
-5.05387e-07
7.3681e-06
-3.3854e-06
6.61285e-08
6.64633e-06
-4.79536e-06
7.15854e-07
5.43543e-06
-6.42094e-06
1.28234e-06
3.45415e-06
-7.62653e-06
1.54017e-06
1.83674e-07
-7.25133e-06
1.23488e-06
-4.4533e-06
-4.29149e-06
4.95502e-07
-9.07417e-06
-6.46993e-08
-8.89795e-06
-1.73884e-06
-1.19018e-06
8.14623e-06
-4.11278e-06
-1.44394e-06
1.33054e-05
-6.48068e-06
-8.31169e-07
1.37236e-05
-8.86233e-06
2.44881e-07
1.20752e-05
-1.1293e-05
1.44746e-06
8.98879e-06
-1.34824e-05
2.43764e-06
4.14192e-06
-1.45729e-05
2.82082e-06
-2.98419e-06
-1.30114e-05
2.24758e-06
-1.21934e-05
-7.42621e-06
9.50541e-07
-2.01852e-05
-6.03087e-08
-1.73543e-05
-2.49842e-06
-1.11762e-06
9.10268e-06
-6.02732e-06
-1.39359e-06
1.53506e-05
-9.37978e-06
-7.58718e-07
1.58429e-05
-1.23189e-05
3.48107e-07
1.36006e-05
-1.48079e-05
1.54919e-06
9.47091e-06
-1.66128e-05
2.47816e-06
3.2403e-06
-1.70669e-05
2.74453e-06
-5.45251e-06
-1.47797e-05
2.10439e-06
-1.63271e-05
-8.3646e-06
8.68612e-07
-2.54097e-05
-3.20869e-08
-2.10391e-05
-2.97493e-06
-6.52974e-07
9.3716e-06
-7.20645e-06
-8.23057e-07
1.59207e-05
-1.10542e-05
-4.28624e-07
1.63113e-05
-1.4106e-05
2.52127e-07
1.3711e-05
-1.63418e-05
9.71703e-07
9.1247e-06
-1.76926e-05
1.49472e-06
2.42275e-06
-1.77228e-05
1.60793e-06
-6.69209e-06
-1.52045e-05
1.19223e-06
-1.80731e-05
-8.65441e-06
4.77476e-07
-2.75452e-05
-1.05158e-08
-2.25741e-05
-3.19632e-06
-4.04659e-13
9.43592e-06
-7.74443e-06
-2.50453e-13
1.6036e-05
-1.17779e-05
-2.13896e-13
1.63351e-05
-1.4804e-05
-1.98715e-13
1.35697e-05
-1.68477e-05
-1.81745e-13
8.83407e-06
-1.79449e-05
-1.34652e-13
2.03261e-06
-1.78232e-05
-8.32965e-14
-7.14525e-06
-1.52903e-05
-1.78766e-14
-1.86733e-05
-8.75951e-06
2.70649e-14
-2.83028e-05
4.97871e-14
-2.3141e-05
-3.19632e-06
6.52974e-07
9.43592e-06
-7.74443e-06
8.23057e-07
1.6036e-05
-1.17779e-05
4.28623e-07
1.63351e-05
-1.4804e-05
-2.52128e-07
1.35697e-05
-1.68477e-05
-9.71704e-07
8.83407e-06
-1.79449e-05
-1.49472e-06
2.03261e-06
-1.78232e-05
-1.60793e-06
-7.14525e-06
-1.52903e-05
-1.19223e-06
-1.86733e-05
-8.75951e-06
-4.77476e-07
-2.83028e-05
1.05158e-08
-2.3141e-05
-2.97493e-06
1.11762e-06
9.3716e-06
-7.20645e-06
1.39359e-06
1.59207e-05
-1.10542e-05
7.58717e-07
1.63113e-05
-1.4106e-05
-3.48107e-07
1.3711e-05
-1.63418e-05
-1.54919e-06
9.1247e-06
-1.76926e-05
-2.47816e-06
2.42275e-06
-1.77228e-05
-2.74453e-06
-6.69209e-06
-1.52045e-05
-2.10439e-06
-1.80731e-05
-8.65441e-06
-8.68612e-07
-2.75452e-05
3.20866e-08
-2.25741e-05
-2.49842e-06
1.19018e-06
9.10268e-06
-6.02732e-06
1.44394e-06
1.53506e-05
-9.37978e-06
8.31169e-07
1.58429e-05
-1.23189e-05
-2.44881e-07
1.36006e-05
-1.48079e-05
-1.44746e-06
9.47091e-06
-1.66128e-05
-2.43764e-06
3.2403e-06
-1.70669e-05
-2.82082e-06
-5.45251e-06
-1.47797e-05
-2.24758e-06
-1.63271e-05
-8.3646e-06
-9.50541e-07
-2.54097e-05
6.03089e-08
-2.10391e-05
-1.73884e-06
7.33435e-07
8.14624e-06
-4.11278e-06
8.33995e-07
1.33054e-05
-6.48068e-06
5.05386e-07
1.37236e-05
-8.86233e-06
-6.61289e-08
1.20752e-05
-1.1293e-05
-7.15854e-07
8.98879e-06
-1.34824e-05
-1.28234e-06
4.14192e-06
-1.45729e-05
-1.54017e-06
-2.98419e-06
-1.30114e-05
-1.23488e-06
-1.21934e-05
-7.42621e-06
-4.95501e-07
-2.01852e-05
6.46996e-08
-1.73543e-05
-6.90206e-07
5.00433e-06
-1.49841e-06
7.33146e-06
-2.3285e-06
7.3681e-06
-3.3854e-06
6.64633e-06
-4.79536e-06
5.43543e-06
-6.42094e-06
3.45415e-06
-7.62653e-06
1.83674e-07
-7.25133e-06
-4.4533e-06
-4.29149e-06
-9.07417e-06
-8.89795e-06
-1.22076e-06
-8.29125e-07
7.05422e-06
-1.81741e-06
-8.38907e-07
8.76701e-06
-2.16791e-06
-3.09009e-07
8.02761e-06
-2.80922e-06
5.40733e-07
6.74691e-06
-4.12249e-06
1.52342e-06
5.22528e-06
-6.17589e-06
2.45371e-06
3.05384e-06
-8.4273e-06
2.98336e-06
-5.48271e-07
-9.23523e-06
2.59006e-06
-6.23543e-06
-6.51014e-06
1.2002e-06
-1.29995e-05
-2.97403e-07
-1.51107e-05
-2.36214e-06
-1.27401e-06
1.09533e-05
-4.34919e-06
-1.40848e-06
1.5862e-05
-5.85222e-06
-4.90112e-07
1.54078e-05
-7.32438e-06
9.91502e-07
1.30966e-05
-9.16547e-06
2.63908e-06
9.71422e-06
-1.14194e-05
4.03784e-06
4.81169e-06
-1.34913e-05
4.62431e-06
-2.55324e-06
-1.36446e-05
3.75919e-06
-1.32093e-05
-9.28558e-06
1.56846e-06
-2.49125e-05
-4.24524e-07
-2.65128e-05
-3.0037e-06
-1.15754e-06
1.19899e-05
-5.98612e-06
-1.32504e-06
1.82495e-05
-8.23487e-06
-4.21711e-07
1.80232e-05
-9.95085e-06
1.02121e-06
1.52869e-05
-1.14726e-05
2.55756e-06
1.10742e-05
-1.29697e-05
3.73943e-06
5.03575e-06
-1.41884e-05
4.05761e-06
-3.66702e-06
-1.38468e-05
3.085e-06
-1.59946e-05
-9.45965e-06
1.1511e-06
-2.93795e-05
-3.46563e-07
-3.05767e-05
-3.37052e-06
-6.63358e-07
1.22479e-05
-6.91437e-06
-7.70009e-07
1.89095e-05
-9.49168e-06
-2.26142e-07
1.8693e-05
-1.11404e-05
6.33622e-07
1.57472e-05
-1.22263e-05
1.51827e-06
1.12499e-05
-1.3116e-05
2.14988e-06
4.90194e-06
-1.3872e-05
2.24706e-06
-4.12554e-06
-1.34967e-05
1.62814e-06
-1.69914e-05
-9.41308e-06
5.61471e-07
-3.10392e-05
-1.77637e-07
-3.21561e-05
-3.53046e-06
-2.97133e-13
1.2303e-05
-7.31052e-06
-1.89342e-13
1.9046e-05
-9.98854e-06
-1.59543e-13
1.8787e-05
-1.15342e-05
-1.56008e-13
1.5749e-05
-1.23627e-05
-1.38621e-13
1.11808e-05
-1.29756e-05
-7.98248e-14
4.79538e-06
-1.35991e-05
-2.34916e-14
-4.27466e-06
-1.332e-05
4.3825e-14
-1.73243e-05
-9.42346e-06
6.59889e-14
-3.16379e-05
3.97203e-14
-3.27421e-05
-3.53046e-06
6.63358e-07
1.2303e-05
-7.31052e-06
7.70009e-07
1.9046e-05
-9.98854e-06
2.26142e-07
1.8787e-05
-1.15342e-05
-6.33622e-07
1.5749e-05
-1.23627e-05
-1.51827e-06
1.11808e-05
-1.29756e-05
-2.14988e-06
4.79538e-06
-1.35991e-05
-2.24706e-06
-4.27466e-06
-1.332e-05
-1.62814e-06
-1.73243e-05
-9.42346e-06
-5.61471e-07
-3.16379e-05
1.77637e-07
-3.27421e-05
-3.37052e-06
1.15754e-06
1.22479e-05
-6.91437e-06
1.32504e-06
1.89095e-05
-9.49168e-06
4.21711e-07
1.8693e-05
-1.11404e-05
-1.02121e-06
1.57472e-05
-1.22263e-05
-2.55756e-06
1.12499e-05
-1.3116e-05
-3.73943e-06
4.90194e-06
-1.3872e-05
-4.05761e-06
-4.12554e-06
-1.34967e-05
-3.085e-06
-1.69914e-05
-9.41308e-06
-1.1511e-06
-3.10392e-05
3.46563e-07
-3.21561e-05
-3.0037e-06
1.27401e-06
1.19899e-05
-5.98612e-06
1.40848e-06
1.82495e-05
-8.23487e-06
4.90112e-07
1.80232e-05
-9.95085e-06
-9.91502e-07
1.52869e-05
-1.14726e-05
-2.63908e-06
1.10742e-05
-1.29697e-05
-4.03784e-06
5.03575e-06
-1.41884e-05
-4.62431e-06
-3.66702e-06
-1.38468e-05
-3.75919e-06
-1.59946e-05
-9.45965e-06
-1.56846e-06
-2.93795e-05
4.24524e-07
-3.05767e-05
-2.36214e-06
8.29125e-07
1.09533e-05
-4.34919e-06
8.38907e-07
1.5862e-05
-5.85222e-06
3.09009e-07
1.54078e-05
-7.32438e-06
-5.40733e-07
1.30966e-05
-9.16547e-06
-1.52342e-06
9.71422e-06
-1.14194e-05
-2.45371e-06
4.81169e-06
-1.34913e-05
-2.98336e-06
-2.55324e-06
-1.36446e-05
-2.59006e-06
-1.32093e-05
-9.28558e-06
-1.2002e-06
-2.49125e-05
2.97403e-07
-2.65128e-05
-1.22076e-06
7.05422e-06
-1.81741e-06
8.76701e-06
-2.16791e-06
8.02761e-06
-2.80922e-06
6.74691e-06
-4.12249e-06
5.22528e-06
-6.17589e-06
3.05384e-06
-8.4273e-06
-5.4827e-07
-9.23523e-06
-6.23543e-06
-6.51014e-06
-1.29995e-05
-1.51107e-05
-2.46726e-06
-1.08203e-06
1.06035e-05
-2.21685e-06
-1.07367e-06
9.59028e-06
-1.2647e-06
-3.84156e-07
7.45962e-06
-7.13793e-07
6.84074e-07
5.51193e-06
-1.20651e-06
1.91504e-06
3.80295e-06
-3.07052e-06
3.14687e-06
1.77098e-06
-6.14392e-06
4.02876e-06
-1.50363e-06
-8.68163e-06
3.68211e-06
-7.37982e-06
-7.67087e-06
1.61834e-06
-1.56286e-05
-1.01652e-06
-2.1765e-05
-4.00411e-06
-1.52872e-06
1.54041e-05
-4.6354e-06
-1.65519e-06
1.70748e-05
-3.82868e-06
-5.7972e-07
1.47966e-05
-2.86879e-06
1.08344e-06
1.17373e-05
-2.6103e-06
2.93902e-06
8.43176e-06
-3.53649e-06
4.5958e-06
4.28894e-06
-5.70657e-06
5.49758e-06
-1.85198e-06
-8.02946e-06
4.59652e-06
-1.18008e-05
-7.43464e-06
1.61743e-06
-2.55064e-05
-1.38597e-06
-3.3578e-05
-4.61064e-06
-1.30606e-06
1.63779e-05
-5.94212e-06
-1.46839e-06
1.93942e-05
-5.46646e-06
-4.74027e-07
1.74418e-05
-4.28849e-06
1.04063e-06
1.41517e-05
-3.22813e-06
2.64673e-06
1.03061e-05
-2.92335e-06
3.94884e-06
5.37794e-06
-3.82391e-06
4.46236e-06
-1.73123e-06
-5.73668e-06
3.45351e-06
-1.29388e-05
-5.98876e-06
1.01611e-06
-2.85261e-05
-1.02374e-06
-3.69277e-05
-4.87281e-06
-7.21338e-07
1.6536e-05
-6.56313e-06
-8.23855e-07
1.99553e-05
-6.22354e-06
-2.45383e-07
1.81248e-05
-4.84747e-06
6.23048e-07
1.47887e-05
-3.27563e-06
1.51063e-06
1.08142e-05
-2.30136e-06
2.1803e-06
5.69621e-06
-2.65744e-06
2.37261e-06
-1.67972e-06
-4.61457e-06
1.7449e-06
-1.33257e-05
-5.47907e-06
4.60693e-07
-2.96192e-05
-4.90604e-07
-3.81683e-05
-4.96633e-06
-2.18845e-13
1.6548e-05
-6.78805e-06
-1.33484e-13
2.00439e-05
-6.47111e-06
-1.07551e-13
1.82247e-05
-4.9713e-06
-1.00862e-13
1.48722e-05
-3.16452e-06
-6.98955e-14
1.08846e-05
-1.94342e-06
-1.09899e-14
5.75459e-06
-2.16954e-06
5.61832e-14
-1.67593e-06
-4.2656e-06
1.02635e-13
-1.34833e-05
-5.40193e-06
9.486e-14
-3.00409e-05
2.03751e-14
-3.86347e-05
-4.96633e-06
7.21338e-07
1.6548e-05
-6.78805e-06
8.23855e-07
2.00439e-05
-6.47111e-06
2.45382e-07
1.82247e-05
-4.9713e-06
-6.23048e-07
1.48722e-05
-3.16452e-06
-1.51063e-06
1.08846e-05
-1.94342e-06
-2.1803e-06
5.75459e-06
-2.16954e-06
-2.37261e-06
-1.67593e-06
-4.2656e-06
-1.7449e-06
-1.34833e-05
-5.40193e-06
-4.60693e-07
-3.00409e-05
4.90604e-07
-3.86347e-05
-4.87281e-06
1.30606e-06
1.6536e-05
-6.56313e-06
1.46839e-06
1.99553e-05
-6.22354e-06
4.74026e-07
1.81248e-05
-4.84747e-06
-1.04063e-06
1.47887e-05
-3.27563e-06
-2.64673e-06
1.08142e-05
-2.30136e-06
-3.94884e-06
5.69621e-06
-2.65744e-06
-4.46236e-06
-1.67972e-06
-4.61457e-06
-3.45351e-06
-1.33257e-05
-5.47907e-06
-1.01611e-06
-2.96192e-05
1.02374e-06
-3.81683e-05
-4.61064e-06
1.52872e-06
1.63779e-05
-5.94212e-06
1.65519e-06
1.93942e-05
-5.46646e-06
5.7972e-07
1.74418e-05
-4.28849e-06
-1.08344e-06
1.41517e-05
-3.22813e-06
-2.93902e-06
1.03061e-05
-2.92335e-06
-4.5958e-06
5.37794e-06
-3.82391e-06
-5.49758e-06
-1.73123e-06
-5.73668e-06
-4.59652e-06
-1.29388e-05
-5.98876e-06
-1.61743e-06
-2.85261e-05
1.38597e-06
-3.69277e-05
-4.00411e-06
1.08203e-06
1.54041e-05
-4.6354e-06
1.07367e-06
1.70748e-05
-3.82868e-06
3.84156e-07
1.47966e-05
-2.86879e-06
-6.84074e-07
1.17373e-05
-2.6103e-06
-1.91504e-06
8.43176e-06
-3.53649e-06
-3.14687e-06
4.28894e-06
-5.70657e-06
-4.02876e-06
-1.85198e-06
-8.02946e-06
-3.68211e-06
-1.18008e-05
-7.43464e-06
-1.61834e-06
-2.55064e-05
1.01652e-06
-3.3578e-05
-2.46726e-06
1.06035e-05
-2.21685e-06
9.59028e-06
-1.2647e-06
7.45962e-06
-7.13792e-07
5.51193e-06
-1.20651e-06
3.80295e-06
-3.07052e-06
1.77098e-06
-6.14392e-06
-1.50363e-06
-8.68163e-06
-7.37982e-06
-7.67087e-06
-1.56286e-05
-2.1765e-05
-2.6669e-06
-1.85781e-06
1.51282e-05
5.2712e-07
-1.99039e-06
8.38665e-06
4.56978e-06
-1.19839e-06
4.61535e-06
7.43194e-06
-1.41672e-07
2.79145e-06
8.61472e-06
1.09973e-06
1.52043e-06
7.67996e-06
2.38303e-06
3.22699e-07
4.36463e-06
3.54798e-06
-1.73627e-06
-6.12639e-07
3.4456e-06
-5.84816e-06
-3.46895e-06
8.96328e-07
-1.36686e-05
-2.72614e-06
-2.25078e-05
-4.75982e-06
-2.23281e-06
2.05389e-05
-7.48531e-07
-2.67782e-06
1.3751e-05
5.18686e-06
-1.76447e-06
9.42729e-06
1.03378e-05
-2.88709e-07
6.73345e-06
1.40109e-05
1.3783e-06
4.48012e-06
1.55245e-05
3.00889e-06
2.14949e-06
1.40736e-05
4.26564e-06
-1.11884e-06
9.34004e-06
3.82856e-06
-7.45013e-06
3.1025e-06
6.83081e-07
-1.90556e-05
-2.77011e-06
-3.04315e-05
-5.51981e-06
-1.71018e-06
2.13751e-05
-1.69925e-06
-2.16924e-06
1.50651e-05
4.39561e-06
-1.43517e-06
1.10177e-05
1.02287e-05
-2.27963e-07
8.25788e-06
1.50401e-05
1.11444e-06
5.75863e-06
1.80352e-05
2.35276e-06
3.0389e-06
1.79686e-05
3.19006e-06
-5.8908e-07
1.37433e-05
2.73782e-06
-7.62264e-06
5.72927e-06
4.22613e-07
-2.02516e-05
-1.73699e-06
-3.22316e-05
-5.71379e-06
-8.88539e-07
2.14282e-05
-2.03122e-06
-1.15306e-06
1.52565e-05
4.0668e-06
-7.50424e-07
1.1342e-05
1.01126e-05
-1.01855e-07
8.61688e-06
1.53397e-05