/*--------------------------------*- C++ -*----------------------------------*\
  =========                 |
  \\      /  F ield         | OpenFOAM: The Open Source CFD Toolbox
   \\    /   O peration     | Website:  https://openfoam.org
    \\  /    A nd           | Version:  9
     \\/     M anipulation  |
\*---------------------------------------------------------------------------*/
FoamFile
{
    format      ascii;
    class       volVectorField;
    location    "0.83";
    object      U;
}
// * * * * * * * * * * * * * * * * * * * * * * * * * * * * * * * * * * * * * //

dimensions      [0 1 -1 0 0 0 0];

internalField   nonuniform List<vector> 
1000
(
(3.17578e-05 -0.000513986 0.000340465)
(-0.00139772 -0.000483197 0.00107769)
(-0.00457321 -0.000440566 0.00143945)
(-0.00797139 -0.000550738 0.00159922)
(-0.01089 -0.00086005 0.00156898)
(-0.0123619 -0.00132894 0.0012567)
(-0.0114436 -0.00179301 0.000650688)
(-0.00788055 -0.00196043 -1.86371e-05)
(-0.00262576 -0.00156004 -0.000216843)
(0.000112611 -0.000467095 0.000380808)
(-0.000148537 -0.00182773 0.000596742)
(-0.00343741 -0.00226411 0.00231302)
(-0.0101625 -0.00235011 0.0030757)
(-0.0170805 -0.00268578 0.00317709)
(-0.0226899 -0.00345067 0.00268779)
(-0.0251956 -0.00454138 0.00151091)
(-0.0229602 -0.00553403 -0.000211569)
(-0.0156883 -0.00572323 -0.00174494)
(-0.00545291 -0.0045279 -0.00176496)
(-5.06409e-06 -0.00167416 0.000237962)
(-0.000350019 -0.00274535 0.000284147)
(-0.00500382 -0.00386451 0.00236225)
(-0.0141112 -0.00419118 0.00326533)
(-0.0232397 -0.00464182 0.00322049)
(-0.0303573 -0.00550056 0.00229476)
(-0.0331685 -0.0066471 0.000418564)
(-0.0296685 -0.00753725 -0.00209911)
(-0.0197037 -0.00746435 -0.00401927)
(-0.00628701 -0.00588548 -0.00347502)
(0.000354307 -0.00250096 -4.40445e-05)
(-0.000498128 -0.00233173 -0.000135867)
(-0.00608458 -0.00342594 0.0020007)
(-0.0167695 -0.00376194 0.00292277)
(-0.0273005 -0.00412406 0.00274562)
(-0.0352869 -0.00475418 0.0015076)
(-0.0380635 -0.00555698 -0.000831644)
(-0.033468 -0.00609477 -0.00382059)
(-0.0216267 -0.00590637 -0.00584981)
(-0.00623123 -0.00465361 -0.00473215)
(0.000833299 -0.00209446 -0.000239681)
(-0.000578859 -0.000901555 -0.000398406)
(-0.00664469 -0.00134628 0.00172173)
(-0.0181224 -0.00148466 0.00263453)
(-0.029336 -0.00161963 0.00238237)
(-0.0377064 -0.00184309 0.000981873)
(-0.0403973 -0.0021184 -0.00159059)
(-0.0351846 -0.00229502 -0.00477556)
(-0.0223713 -0.00220403 -0.00680566)
(-0.00603374 -0.00173752 -0.00535332)
(0.00113618 -0.00080171 -0.000328168)
(-0.000578858 0.000901534 -0.000398405)
(-0.00664469 0.00134627 0.00172173)
(-0.0181224 0.00148465 0.00263454)
(-0.029336 0.00161962 0.00238237)
(-0.0377064 0.00184309 0.000981873)
(-0.0403973 0.0021184 -0.00159059)
(-0.0351845 0.00229502 -0.00477556)
(-0.0223713 0.00220403 -0.00680566)
(-0.00603374 0.00173752 -0.00535332)
(0.00113618 0.000801707 -0.000328168)
(-0.000498126 0.0023317 -0.000135866)
(-0.00608458 0.00342592 0.0020007)
(-0.0167695 0.00376193 0.00292277)
(-0.0273005 0.00412405 0.00274562)
(-0.0352869 0.00475417 0.00150761)
(-0.0380635 0.00555697 -0.000831643)
(-0.033468 0.00609476 -0.00382058)
(-0.0216267 0.00590637 -0.00584981)
(-0.00623123 0.00465361 -0.00473215)
(0.0008333 0.00209445 -0.000239681)
(-0.000350015 0.00274531 0.000284149)
(-0.00500381 0.00386449 0.00236225)
(-0.0141112 0.00419117 0.00326533)
(-0.0232397 0.00464182 0.00322049)
(-0.0303573 0.00550055 0.00229476)
(-0.0331685 0.0066471 0.000418565)
(-0.0296685 0.00753724 -0.0020991)
(-0.0197037 0.00746435 -0.00401927)
(-0.00628701 0.00588547 -0.00347502)
(0.000354307 0.00250096 -4.40441e-05)
(-0.000148526 0.00182767 0.000596751)
(-0.00343739 0.00226409 0.00231302)
(-0.0101625 0.0023501 0.0030757)
(-0.0170805 0.00268578 0.00317709)
(-0.0226899 0.00345067 0.00268779)
(-0.0251956 0.00454138 0.00151091)
(-0.0229602 0.00553403 -0.000211568)
(-0.0156883 0.00572323 -0.00174494)
(-0.00545291 0.0045279 -0.00176496)
(-5.06353e-06 0.00167416 0.000237963)
(3.17948e-05 0.000513955 0.000340498)
(-0.00139766 0.000483191 0.0010777)
(-0.00457318 0.000440563 0.00143945)
(-0.00797137 0.000550737 0.00159922)
(-0.01089 0.00086005 0.00156898)
(-0.0123619 0.00132894 0.0012567)
(-0.0114435 0.00179301 0.000650688)
(-0.00788055 0.00196042 -1.86375e-05)
(-0.00262576 0.00156004 -0.000216843)
(0.000112611 0.000467094 0.000380807)
(-0.000623488 -0.00146734 0.00346979)
(-0.004098 -0.00189385 0.0069677)
(-0.0101489 -0.00193235 0.00834325)
(-0.0163923 -0.00196089 0.00854734)
(-0.02164 -0.00213603 0.00767848)
(-0.0243119 -0.00247944 0.00550328)
(-0.022847 -0.00283473 0.00214159)
(-0.016597 -0.0028508 -0.00133976)
(-0.00681111 -0.00209435 -0.00276208)
(-0.000654307 -0.000320282 -0.000502431)
(-0.00195995 -0.00435321 0.00580297)
(-0.0108579 -0.00613882 0.0132468)
(-0.025297 -0.00643669 0.0159107)
(-0.0394298 -0.00653706 0.0153387)
(-0.050382 -0.00695388 0.0118933)
(-0.0550342 -0.00771555 0.00549501)
(-0.0506918 -0.00841289 -0.00290589)
(-0.0365883 -0.00816571 -0.0101742)
(-0.01579 -0.00609552 -0.0111027)
(-0.0021478 -0.00165252 -0.00289994)
(-0.0030468 -0.00581531 0.00560929)
(-0.0160721 -0.00876375 0.0144305)
(-0.0364941 -0.00934637 0.0173418)
(-0.055726 -0.00945968 0.0157115)
(-0.0697705 -0.00984793 0.00994836)
(-0.0747529 -0.010534 0.000253601)
(-0.0675952 -0.010999 -0.0114938)
(-0.0478607 -0.0103781 -0.0204093)
(-0.0201405 -0.0078834 -0.0192396)
(-0.00252437 -0.00286242 -0.00516931)
(-0.0037732 -0.00471208 0.00473267)
(-0.019598 -0.00731151 0.0137546)
(-0.0439806 -0.00784213 0.0164918)
(-0.0663338 -0.00790232 0.0139496)
(-0.0819557 -0.00811482 0.00651472)
(-0.0865745 -0.00850062 -0.0053168)
(-0.0770937 -0.00863262 -0.0189391)
(-0.0536297 -0.00802047 -0.0282934)
(-0.0218259 -0.0061614 -0.0250085)
(-0.00236006 -0.00249335 -0.00667769)
(-0.00413469 -0.00178722 0.0041107)
(-0.0213754 -0.00280485 0.0130494)
(-0.047735 -0.00301343 0.0156089)
(-0.0715623 -0.00302656 0.0125553)
(-0.0878153 -0.00308251 0.00426316)
(-0.0920612 -0.0031921 -0.00857611)
(-0.0812895 -0.00319996 -0.0229628)
(-0.0559832 -0.00295311 -0.0323169)
(-0.0223234 -0.00228351 -0.027821)
(-0.00216899 -0.000967615 -0.00737962)
(-0.00413469 0.00178721 0.00411071)
(-0.0213754 0.00280484 0.0130494)
(-0.047735 0.00301342 0.0156089)
(-0.0715623 0.00302656 0.0125553)
(-0.0878153 0.00308251 0.00426316)
(-0.0920612 0.00319209 -0.00857611)
(-0.0812895 0.00319996 -0.0229628)
(-0.0559832 0.0029531 -0.0323169)
(-0.0223234 0.00228351 -0.027821)
(-0.00216899 0.000967614 -0.00737962)
(-0.0037732 0.00471207 0.00473267)
(-0.019598 0.0073115 0.0137546)
(-0.0439806 0.00784212 0.0164918)
(-0.0663338 0.00790232 0.0139496)
(-0.0819557 0.00811482 0.00651472)
(-0.0865745 0.00850062 -0.0053168)
(-0.0770937 0.00863262 -0.0189391)
(-0.0536297 0.00802046 -0.0282934)
(-0.0218259 0.0061614 -0.0250085)
(-0.00236006 0.00249335 -0.00667769)
(-0.0030468 0.00581529 0.00560929)
(-0.0160721 0.00876373 0.0144305)
(-0.0364941 0.00934636 0.0173418)
(-0.055726 0.00945967 0.0157115)
(-0.0697705 0.00984792 0.00994836)
(-0.0747529 0.010534 0.000253603)
(-0.0675952 0.010999 -0.0114938)
(-0.0478607 0.0103781 -0.0204093)
(-0.0201405 0.0078834 -0.0192396)
(-0.00252437 0.00286242 -0.00516931)
(-0.00195994 0.00435319 0.00580299)
(-0.0108579 0.00613881 0.0132468)
(-0.025297 0.00643668 0.0159107)
(-0.0394298 0.00653705 0.0153387)
(-0.050382 0.00695387 0.0118933)
(-0.0550342 0.00771554 0.00549501)
(-0.0506918 0.00841289 -0.00290589)
(-0.0365883 0.00816571 -0.0101742)
(-0.01579 0.00609552 -0.0111027)
(-0.0021478 0.00165251 -0.00289994)
(-0.00062348 0.00146733 0.00346984)
(-0.00409798 0.00189385 0.00696772)
(-0.0101489 0.00193235 0.00834326)
(-0.0163923 0.00196089 0.00854735)
(-0.0216399 0.00213603 0.00767848)
(-0.0243119 0.00247944 0.00550328)
(-0.022847 0.00283473 0.00214159)
(-0.016597 0.0028508 -0.00133976)
(-0.0068111 0.00209435 -0.00276208)
(-0.000654307 0.00032028 -0.00050243)
(-0.00109705 -0.00228434 0.0101536)
(-0.00597217 -0.00302765 0.0182029)
(-0.0138724 -0.00300768 0.0208398)
(-0.0219934 -0.00278195 0.0206019)
(-0.0291881 -0.00263923 0.0178378)
(-0.0336638 -0.00272465 0.0121619)
(-0.0332109 -0.00296296 0.00383274)
(-0.0260712 -0.00300642 -0.0049718)
(-0.0125924 -0.00222682 -0.00940482)
(-0.00218236 -5.20532e-05 -0.00464895)
(-0.00347047 -0.00646698 0.016954)
(-0.0167582 -0.00912159 0.0334153)
(-0.0368226 -0.00914858 0.0382012)
(-0.0560936 -0.00838923 0.035505)
(-0.0714038 -0.00775078 0.0263591)
(-0.0791486 -0.00758909 0.010856)
(-0.0755951 -0.00773389 -0.00900565)
(-0.0582211 -0.00750303 -0.0269069)
(-0.0286823 -0.00567931 -0.0313081)
(-0.00546515 -0.000952179 -0.0130996)
(-0.0054223 -0.00828918 0.018069)
(-0.0253361 -0.0123198 0.0373951)
(-0.0543565 -0.012411 0.04221)
(-0.080864 -0.0112121 0.0366665)
(-0.100336 -0.00999627 0.0220939)
(-0.108422 -0.00920721 -0.000653635)
(-0.101183 -0.00873356 -0.0276289)
(-0.0763614 -0.0081534 -0.0494361)
(-0.036938 -0.00640837 -0.0502723)
(-0.00675926 -0.00196848 -0.0196461)
(-0.00674542 -0.00655667 0.0174131)
(-0.0311756 -0.00998432 0.0371835)
(-0.0660819 -0.0100442 0.0412769)
(-0.0968332 -0.00894715 0.0333979)
(-0.118113 -0.00774633 0.0150886)
(-0.125385 -0.00680456 -0.0120121)
(-0.115021 -0.00612928 -0.0426506)
(-0.085433 -0.00560948 -0.0655235)
(-0.0405204 -0.00455887 -0.0627562)
(-0.00703319 -0.00172833 -0.023685)
(-0.00740519 -0.00245799 0.0167526)
(-0.0341062 -0.00377783 0.0363744)
(-0.0719066 -0.00379316 0.039909)
(-0.104569 -0.00334941 0.0307567)
(-0.126418 -0.00284913 0.0106089)
(-0.132955 -0.0024329 -0.0184065)
(-0.120876 -0.00213395 -0.0504)
(-0.0890352 -0.00193903 -0.0733259)
(-0.0417757 -0.00161038 -0.0685577)
(-0.00702645 -0.000669258 -0.0254929)
(-0.00740519 0.00245798 0.0167526)
(-0.0341062 0.00377782 0.0363744)
(-0.0719066 0.00379315 0.039909)
(-0.104569 0.00334941 0.0307567)
(-0.126418 0.00284912 0.0106089)
(-0.132955 0.0024329 -0.0184065)
(-0.120876 0.00213394 -0.0504)
(-0.0890352 0.00193903 -0.0733259)
(-0.0417757 0.00161038 -0.0685577)
(-0.00702645 0.000669256 -0.0254929)
(-0.00674542 0.00655666 0.0174131)
(-0.0311756 0.00998431 0.0371835)
(-0.0660819 0.0100442 0.0412769)
(-0.0968332 0.00894714 0.0333979)
(-0.118113 0.00774633 0.0150886)
(-0.125385 0.00680456 -0.0120121)
(-0.115021 0.00612928 -0.0426506)
(-0.085433 0.00560948 -0.0655235)
(-0.0405204 0.00455886 -0.0627562)
(-0.00703319 0.00172833 -0.023685)
(-0.00542229 0.00828917 0.018069)
(-0.0253361 0.0123198 0.0373951)
(-0.0543565 0.012411 0.04221)
(-0.080864 0.0112121 0.0366665)
(-0.100336 0.00999627 0.0220939)
(-0.108422 0.0092072 -0.000653635)
(-0.101183 0.00873356 -0.0276289)
(-0.0763614 0.0081534 -0.0494361)
(-0.036938 0.00640836 -0.0502723)
(-0.00675926 0.00196848 -0.0196461)
(-0.00347047 0.00646698 0.016954)
(-0.0167582 0.00912158 0.0334153)
(-0.0368226 0.00914858 0.0382012)
(-0.0560936 0.00838922 0.035505)
(-0.0714038 0.00775078 0.0263591)
(-0.0791486 0.00758909 0.010856)
(-0.0755951 0.00773388 -0.00900564)
(-0.0582211 0.00750303 -0.0269069)
(-0.0286823 0.00567931 -0.0313081)
(-0.00546514 0.000952177 -0.0130996)
(-0.00109705 0.00228434 0.0101536)
(-0.00597216 0.00302765 0.0182029)
(-0.0138724 0.00300768 0.0208398)
(-0.0219934 0.00278194 0.0206019)
(-0.0291881 0.00263923 0.0178378)
(-0.0336638 0.00272464 0.0121619)
(-0.0332109 0.00296296 0.00383274)
(-0.0260712 0.00300642 -0.00497179)
(-0.0125924 0.00222682 -0.00940482)
(-0.00218236 5.20513e-05 -0.00464895)
(-0.00146195 -0.00299309 0.0189691)
(-0.00729259 -0.00389025 0.0323398)
(-0.0163881 -0.00360423 0.0359946)
(-0.0259633 -0.00287387 0.0348748)
(-0.0353701 -0.0021541 0.029778)
(-0.042897 -0.00177337 0.0199597)
(-0.0455204 -0.00186404 0.00531686)
(-0.039436 -0.00223971 -0.0112316)
(-0.0225868 -0.00197913 -0.021331)
(-0.00548509 0.000131646 -0.0136484)
(-0.004673 -0.00827454 0.0317308)
(-0.0212759 -0.0113049 0.0588323)
(-0.0454568 -0.0104144 0.0653199)
(-0.0687857 -0.00796953 0.0595561)
(-0.0886909 -0.00537617 0.0436269)
(-0.101643 -0.00355512 0.017439)
(-0.102612 -0.00292412 -0.0169518)
(-0.0857239 -0.00348014 -0.0506686)
(-0.0486812 -0.00352063 -0.0637261)
(-0.0117767 -0.000166854 -0.0330983)
(-0.00731357 -0.0103512 0.0349678)
(-0.0325333 -0.0147649 0.0667882)
(-0.0679325 -0.0134386 0.072957)
(-0.0999666 -0.00971738 0.0623826)
(-0.124743 -0.00557024 0.0379246)
(-0.138129 -0.00226663 0.000671548)
(-0.135135 -0.000683908 -0.0449229)
(-0.110069 -0.00121965 -0.0859374)
(-0.0614866 -0.00231565 -0.0957178)
(-0.0144613 -0.000666032 -0.0459476)
(-0.00910096 -0.00805138 0.0350899)
(-0.0401538 -0.0117097 0.0677906)
(-0.0827616 -0.0105169 0.0726202)
(-0.119524 -0.00724723 0.0583377)
(-0.145863 -0.00354902 0.0284633)
(-0.157902 -0.000510723 -0.0147482)
(-0.151314 0.000925502 -0.0652849)
(-0.121194 0.000391839 -0.108364)
(-0.0669122 -0.000954727 -0.114487)
(-0.0153909 -0.000567335 -0.0530708)
(-0.00998545 -0.002992 0.0346944)
(-0.0439321 -0.00438151 0.0672806)
(-0.0899904 -0.00390247 0.0711523)
(-0.128716 -0.00261485 0.054933)
(-0.15528 -0.00115735 0.0225846)
(-0.166145 4.00782e-05 -0.0229508)
(-0.157597 0.000601381 -0.0750489)
(-0.125275 0.000365207 -0.118377)
(-0.0688332 -0.000219269 -0.122532)
(-0.0156703 -0.00021358 -0.0560412)
(-0.00998545 0.00299199 0.0346944)
(-0.0439321 0.0043815 0.0672806)
(-0.0899904 0.00390246 0.0711523)
(-0.128716 0.00261485 0.054933)
(-0.15528 0.00115734 0.0225846)
(-0.166145 -4.00816e-05 -0.0229508)
(-0.157597 -0.000601383 -0.0750489)
(-0.125275 -0.000365209 -0.118377)
(-0.0688332 0.000219268 -0.122532)
(-0.0156703 0.000213579 -0.0560412)
(-0.00910096 0.00805137 0.0350899)
(-0.0401538 0.0117097 0.0677906)
(-0.0827616 0.0105169 0.0726202)
(-0.119524 0.00724723 0.0583377)
(-0.145863 0.00354902 0.0284633)
(-0.157902 0.00051072 -0.0147482)
(-0.151314 -0.000925503 -0.0652849)
(-0.121194 -0.000391839 -0.108364)
(-0.0669122 0.000954726 -0.114487)
(-0.0153909 0.000567334 -0.0530708)
(-0.00731357 0.0103512 0.0349678)
(-0.0325333 0.0147649 0.0667882)
(-0.0679325 0.0134386 0.0729571)
(-0.0999666 0.00971737 0.0623826)
(-0.124743 0.00557024 0.0379246)
(-0.138129 0.00226663 0.000671549)
(-0.135135 0.000683907 -0.0449229)
(-0.110069 0.00121964 -0.0859374)
(-0.0614866 0.00231565 -0.0957178)
(-0.0144613 0.00066603 -0.0459476)
(-0.004673 0.00827454 0.0317308)
(-0.0212759 0.0113049 0.0588323)
(-0.0454567 0.0104144 0.0653199)
(-0.0687857 0.00796953 0.0595561)
(-0.0886908 0.00537617 0.0436269)
(-0.101643 0.00355512 0.017439)
(-0.102612 0.00292412 -0.0169518)
(-0.0857239 0.00348014 -0.0506686)
(-0.0486812 0.00352063 -0.0637261)
(-0.0117767 0.000166853 -0.0330983)
(-0.00146195 0.00299309 0.0189691)
(-0.00729259 0.00389024 0.0323398)
(-0.0163881 0.00360422 0.0359946)
(-0.0259633 0.00287387 0.0348748)
(-0.03537 0.0021541 0.029778)
(-0.042897 0.00177337 0.0199597)
(-0.0455204 0.00186404 0.00531687)
(-0.039436 0.0022397 -0.0112316)
(-0.0225868 0.00197913 -0.021331)
(-0.00548509 -0.000131646 -0.0136484)
(-0.0019895 -0.00354067 0.0296983)
(-0.00853139 -0.00439207 0.048466)
(-0.0179768 -0.00356393 0.0524105)
(-0.0282366 -0.00196379 0.049803)
(-0.0397771 -0.000237929 0.0420688)
(-0.0515223 0.001071 0.0278455)
(-0.059706 0.00139548 0.00581204)
(-0.0576518 0.000435004 -0.0213317)
(-0.0391785 -0.000748415 -0.041444)
(-0.012079 3.87493e-05 -0.0315652)
(-0.00587179 -0.00960332 0.0495363)
(-0.0247787 -0.0124474 0.0879153)
(-0.051075 -0.00986521 0.0952715)
(-0.0766583 -0.00469949 0.0857836)
(-0.100549 0.00104647 0.0629461)
(-0.120161 0.00566743 0.0257898)
(-0.129359 0.00750678 -0.025209)
(-0.118015 0.0053016 -0.0805316)
(-0.0779329 0.00102164 -0.111251)
(-0.0231859 0.000114619 -0.0696954)
(-0.00891139 -0.0117682 0.0554273)
(-0.0376126 -0.0158291 0.100748)
(-0.0763397 -0.0120978 0.107663)
(-0.111093 -0.00457886 0.0919042)
(-0.139742 0.00381933 0.0583303)
(-0.15941 0.0105472 0.00734968)
(-0.164348 0.0132367 -0.0584217)
(-0.144954 0.0101834 -0.125369)
(-0.0941698 0.00373797 -0.156255)
(-0.0275869 0.000210618 -0.0914043)
(-0.0109134 -0.00901697 0.0566909)
(-0.046099 -0.0123174 0.103565)
(-0.0925084 -0.00911345 0.108784)
(-0.131691 -0.00274347 0.0885608)
(-0.161039 0.00428255 0.0489304)
(-0.17828 0.00975223 -0.00837386)
(-0.179055 0.01162 -0.0795893)
(-0.155114 0.00881412 -0.14994)
(-0.100239 0.00345184 -0.179169)
(-0.0292675 0.000230157 -0.102086)
(-0.0118814 -0.00332385 0.056762)
(-0.050208 -0.00456207 0.103682)
(-0.100147 -0.00331182 0.10771)
(-0.140911 -0.000853458 0.0852728)
(-0.169809 0.00183153 0.0431439)
(-0.18525 0.00387851 -0.0162469)
(-0.183884 0.0044852 -0.0888002)
(-0.158245 0.00335084 -0.159803)
(-0.102283 0.00133104 -0.188113)
(-0.029888 0.00010005 -0.106235)
(-0.0118814 0.00332384 0.056762)
(-0.050208 0.00456207 0.103682)
(-0.100147 0.00331181 0.10771)
(-0.140911 0.000853453 0.0852728)
(-0.169809 -0.00183153 0.0431439)
(-0.18525 -0.00387851 -0.0162469)
(-0.183884 -0.0044852 -0.0888002)
(-0.158245 -0.00335084 -0.159803)
(-0.102283 -0.00133104 -0.188113)
(-0.029888 -0.00010005 -0.106235)
(-0.0109134 0.00901696 0.0566909)
(-0.046099 0.0123174 0.103565)
(-0.0925084 0.00911344 0.108784)
(-0.131691 0.00274347 0.0885608)
(-0.161039 -0.00428255 0.0489304)
(-0.17828 -0.00975223 -0.00837386)
(-0.179055 -0.01162 -0.0795893)
(-0.155114 -0.00881412 -0.14994)
(-0.100239 -0.00345184 -0.179169)
(-0.0292675 -0.000230158 -0.102086)
(-0.00891139 0.0117682 0.0554273)
(-0.0376126 0.0158291 0.100748)
(-0.0763397 0.0120978 0.107663)
(-0.111093 0.00457886 0.0919042)
(-0.139742 -0.00381933 0.0583303)
(-0.15941 -0.0105472 0.00734968)
(-0.164348 -0.0132367 -0.0584217)
(-0.144954 -0.0101834 -0.125369)
(-0.0941698 -0.00373797 -0.156255)
(-0.0275869 -0.000210619 -0.0914043)
(-0.00587179 0.00960332 0.0495363)
(-0.0247787 0.0124474 0.0879153)
(-0.051075 0.00986521 0.0952715)
(-0.0766583 0.00469949 0.0857836)
(-0.100549 -0.00104647 0.0629461)
(-0.120161 -0.00566743 0.0257898)
(-0.129359 -0.00750677 -0.025209)
(-0.118015 -0.0053016 -0.0805315)
(-0.0779329 -0.00102164 -0.111251)
(-0.0231859 -0.000114618 -0.0696954)
(-0.0019895 0.00354067 0.0296983)
(-0.00853139 0.00439207 0.048466)
(-0.0179768 0.00356392 0.0524105)
(-0.0282366 0.00196379 0.049803)
(-0.0397771 0.000237927 0.0420688)
(-0.0515222 -0.001071 0.0278455)
(-0.059706 -0.00139548 0.00581205)
(-0.0576518 -0.000435002 -0.0213317)
(-0.0391785 0.00074842 -0.041444)
(-0.012079 -3.87473e-05 -0.0315652)
(-0.00330615 -0.0039594 0.0425218)
(-0.0106854 -0.00452215 0.0652305)
(-0.018997 -0.00282523 0.0677355)
(-0.0281397 7.68915e-05 0.0625631)
(-0.0404774 0.00341004 0.0519497)
(-0.0564521 0.0063585 0.0336383)
(-0.0723301 0.00776486 0.00420364)
(-0.0784061 0.00626267 -0.0359201)
(-0.0626713 0.00250265 -0.0716126)
(-0.0228881 -0.000321336 -0.0639487)
(-0.0078061 -0.0104716 0.0700398)
(-0.0281361 -0.0125227 0.118327)
(-0.0532181 -0.00748465 0.124717)
(-0.0770157 0.00135736 0.110863)
(-0.101363 0.0114099 0.0820078)
(-0.125876 0.0200385 0.0357221)
(-0.144668 0.023882 -0.0309158)
(-0.144238 0.0194252 -0.111655)
(-0.110487 0.00819883 -0.171637)
(-0.0388698 -0.000803599 -0.130813)
(-0.0108508 -0.0125221 0.0785742)
(-0.0409735 -0.0155634 0.136355)
(-0.0782033 -0.00867193 0.142818)
(-0.110128 0.00345685 0.122395)
(-0.137577 0.0168215 0.082302)
(-0.160237 0.0274705 0.0214296)
(-0.17335 0.0310409 -0.0617436)
(-0.165091 0.024226 -0.158208)
(-0.124356 0.0100828 -0.225048)
(-0.043633 -0.000488501 -0.163502)
(-0.0127267 -0.00943434 0.0809406)
(-0.0490783 -0.0119037 0.141193)
(-0.0933993 -0.00623074 0.146176)
(-0.128541 0.00362944 0.121527)
(-0.155034 0.0141566 0.0760453)
(-0.173641 0.0219457 0.00978729)
(-0.181738 0.0237013 -0.07847)
(-0.169665 0.0176551 -0.179693)
(-0.128017 0.0070633 -0.248524)
(-0.0454026 -0.000193667 -0.177954)
(-0.0135941 -0.00344697 0.0814664)
(-0.052858 -0.00436764 0.142054)
(-0.100257 -0.00220392 0.145917)
(-0.136226 0.00151813 0.119285)
(-0.161385 0.00541177 0.0718832)
(-0.177403 0.00815217 0.00430017)
(-0.183176 0.00859217 -0.0849059)
(-0.170176 0.00622465 -0.187377)
(-0.129127 0.00243154 -0.257003)
(-0.0461565 -3.70856e-05 -0.183342)
(-0.0135941 0.00344696 0.0814664)
(-0.052858 0.00436764 0.142054)
(-0.100257 0.00220392 0.145917)
(-0.136226 -0.00151813 0.119285)
(-0.161385 -0.00541178 0.0718832)
(-0.177403 -0.00815218 0.00430017)
(-0.183176 -0.00859217 -0.0849059)
(-0.170176 -0.00622465 -0.187377)
(-0.129127 -0.00243154 -0.257003)
(-0.0461565 3.70864e-05 -0.183342)
(-0.0127267 0.00943434 0.0809406)
(-0.0490783 0.0119037 0.141193)
(-0.0933993 0.00623073 0.146176)
(-0.128541 -0.00362944 0.121527)
(-0.155034 -0.0141566 0.0760453)
(-0.173641 -0.0219457 0.00978729)
(-0.181738 -0.0237013 -0.07847)
(-0.169665 -0.0176551 -0.179693)
(-0.128017 -0.0070633 -0.248524)
(-0.0454026 0.000193665 -0.177954)
(-0.0108508 0.0125221 0.0785742)
(-0.0409735 0.0155634 0.136355)
(-0.0782033 0.00867193 0.142818)
(-0.110128 -0.00345685 0.122395)
(-0.137577 -0.0168215 0.082302)
(-0.160237 -0.0274705 0.0214296)
(-0.17335 -0.0310409 -0.0617436)
(-0.165091 -0.024226 -0.158208)
(-0.124356 -0.0100828 -0.225048)
(-0.043633 0.0004885 -0.163502)
(-0.0078061 0.0104716 0.0700398)
(-0.0281361 0.0125227 0.118327)
(-0.0532181 0.00748464 0.124717)
(-0.0770157 -0.00135736 0.110863)
(-0.101363 -0.0114099 0.0820078)
(-0.125876 -0.0200385 0.0357221)
(-0.144668 -0.023882 -0.0309158)
(-0.144238 -0.0194252 -0.111655)
(-0.110487 -0.00819882 -0.171637)
(-0.0388698 0.000803602 -0.130813)
(-0.00330616 0.0039594 0.0425219)
(-0.0106854 0.00452215 0.0652305)
(-0.018997 0.00282523 0.0677355)
(-0.0281397 -7.68935e-05 0.0625631)
(-0.0404774 -0.00341004 0.0519497)
(-0.0564521 -0.0063585 0.0336383)
(-0.0723301 -0.00776486 0.00420364)
(-0.0784061 -0.00626267 -0.0359201)
(-0.0626713 -0.00250264 -0.0716126)
(-0.0228881 0.000321338 -0.0639487)
(-0.00704426 -0.00459039 0.0594834)
(-0.0161534 -0.0047014 0.0810972)
(-0.0200229 -0.00186876 0.0786498)
(-0.0240744 0.00264181 0.0689884)
(-0.0333395 0.00794922 0.0552054)
(-0.0507343 0.0131206 0.0338691)
(-0.0743812 0.0163375 -0.00111383)
(-0.0924607 0.0146453 -0.0544035)
(-0.0877221 0.00728468 -0.11079)
(-0.0362184 -0.00137741 -0.117469)
(-0.0125989 -0.011502 0.0949021)
(-0.0341627 -0.012394 0.14704)
(-0.0519164 -0.00452028 0.148269)
(-0.0659499 0.00818736 0.128799)
(-0.0820501 0.0226908 0.0957129)
(-0.103475 0.0357834 0.045057)
(-0.127586 0.0424425 -0.0305628)
(-0.140405 0.0359643 -0.134203)
(-0.127087 0.0159098 -0.233249)
(-0.0500235 -0.00439047 -0.221202)
(-0.0153095 -0.0131463 0.105196)
(-0.0452232 -0.0149296 0.169463)
(-0.0731397 -0.00489561 0.172023)
(-0.0925104 0.0113077 0.147257)
(-0.10822 0.028875 0.104503)
(-0.123864 0.0429943 0.0408935)
(-0.138938 0.0477174 -0.0502107)
(-0.142912 0.0372742 -0.171745)
(-0.128387 0.0144385 -0.285747)
(-0.0509315 -0.00426233 -0.263354)
(-0.0167413 -0.00964529 0.108)
(-0.0516278 -0.0111802 0.17575)
(-0.0850541 -0.00329418 0.17771)
(-0.105871 0.00929168 0.149997)
(-0.118789 0.0223675 0.103514)
(-0.128587 0.0318896 0.0361325)
(-0.137484 0.0336171 -0.0589132)
(-0.137974 0.0246125 -0.186081)
(-0.12629 0.00864068 -0.306002)
(-0.0513896 -0.00269403 -0.280406)
(-0.0173459 -0.00347872 0.108665)
(-0.0544427 -0.00405825 0.177077)
(-0.0900725 -0.00111857 0.178308)
(-0.110865 0.00352552 0.149276)
(-0.121728 0.00822879 0.10174)
(-0.128444 0.0114505 0.0338282)
(-0.134944 0.0117268 -0.0617836)
(-0.135052 0.00827901 -0.190757)
(-0.125671 0.00275818 -0.313124)
(-0.0519107 -0.00087536 -0.286703)
(-0.0173459 0.00347871 0.108665)
(-0.0544427 0.00405825 0.177077)
(-0.0900725 0.00111857 0.178308)
(-0.110865 -0.00352552 0.149276)
(-0.121728 -0.0082288 0.10174)
(-0.128444 -0.0114505 0.0338282)
(-0.134944 -0.0117268 -0.0617836)
(-0.135052 -0.00827901 -0.190757)
(-0.125671 -0.00275818 -0.313124)
(-0.0519107 0.000875361 -0.286703)
(-0.0167413 0.00964529 0.108)
(-0.0516278 0.0111802 0.17575)
(-0.0850541 0.00329418 0.17771)
(-0.105871 -0.00929168 0.149997)
(-0.118789 -0.0223675 0.103514)
(-0.128587 -0.0318896 0.0361325)
(-0.137484 -0.0336171 -0.0589132)
(-0.137974 -0.0246125 -0.186081)
(-0.12629 -0.00864068 -0.306002)
(-0.0513896 0.00269403 -0.280406)
(-0.0153095 0.0131463 0.105196)
(-0.0452232 0.0149296 0.169463)
(-0.0731397 0.00489561 0.172023)
(-0.0925104 -0.0113077 0.147257)
(-0.10822 -0.028875 0.104503)
(-0.123864 -0.0429943 0.0408935)
(-0.138938 -0.0477174 -0.0502107)
(-0.142912 -0.0372743 -0.171745)
(-0.128387 -0.0144385 -0.285747)
(-0.0509315 0.00426232 -0.263354)
(-0.0125989 0.011502 0.0949022)
(-0.0341627 0.012394 0.14704)
(-0.0519164 0.00452028 0.148269)
(-0.0659499 -0.00818736 0.128799)
(-0.0820501 -0.0226908 0.0957129)
(-0.103475 -0.0357834 0.045057)
(-0.127586 -0.0424425 -0.0305628)
(-0.140405 -0.0359643 -0.134203)
(-0.127087 -0.0159098 -0.233249)
(-0.0500235 0.00439047 -0.221202)
(-0.00704427 0.00459039 0.0594834)
(-0.0161534 0.0047014 0.0810972)
(-0.0200229 0.00186876 0.0786498)
(-0.0240744 -0.00264181 0.0689884)
(-0.0333395 -0.00794922 0.0552055)
(-0.0507343 -0.0131206 0.0338691)
(-0.0743812 -0.0163375 -0.00111383)
(-0.0924607 -0.0146453 -0.0544035)
(-0.0877221 -0.00728468 -0.11079)
(-0.0362184 0.00137741 -0.117469)
(-0.0164912 -0.00627235 0.0819206)
(-0.0280979 -0.00638004 0.092675)
(-0.0177199 -0.00255228 0.0808731)
(-0.00841601 0.00343609 0.0645832)
(-0.00698754 0.010426 0.0476706)
(-0.0186423 0.0176959 0.0255242)
(-0.0455194 0.0232716 -0.0111897)
(-0.0762245 0.0218628 -0.0738894)
(-0.0964953 0.0102359 -0.153199)
(-0.0418429 -0.00612785 -0.196152)
(-0.0254813 -0.014388 0.122803)
(-0.0493863 -0.0150947 0.167478)
(-0.0444978 -0.00540227 0.158497)
(-0.0332951 0.00971224 0.131298)
(-0.025763 0.0268486 0.0962389)
(-0.0284403 0.0432218 0.0485105)
(-0.0460215 0.0537633 -0.0237529)
(-0.0677757 0.0474017 -0.13719)
(-0.0947831 0.018872 -0.274948)
(-0.0358275 -0.0144967 -0.326935)
(-0.0282707 -0.0152193 0.132798)
(-0.0588382 -0.0169094 0.192509)
(-0.0606525 -0.00558229 0.186941)
(-0.0502069 0.0119238 0.156466)
(-0.0375689 0.030828 0.114418)
(-0.0292693 0.0468248 0.0569161)
(-0.0331902 0.0541664 -0.027149)
(-0.0430223 0.0433313 -0.156998)
(-0.0743533 0.01371 -0.315402)
(-0.02743 -0.0126375 -0.368276)
(-0.0292793 -0.0106312 0.13506)
(-0.0631867 -0.0120987 0.199345)
(-0.0684366 -0.00363106 0.194661)
(-0.0577471 0.00920478 0.163006)
(-0.0414136 0.0224856 0.118993)
(-0.0264581 0.0327059 0.0591107)
(-0.0234735 0.0359047 -0.0278249)
(-0.0292349 0.0267532 -0.16309)
(-0.0659138 0.00733707 -0.329527)
(-0.0256467 -0.00748398 -0.38354)
(-0.0295972 -0.00374217 0.135493)
(-0.0648031 -0.00429436 0.200734)
(-0.0712291 -0.00121011 0.195961)
(-0.0599937 0.0034005 0.163829)
(-0.0417141 0.00804178 0.119482)
(-0.0239183 0.0114137 0.0594318)
(-0.0187135 0.0121767 -0.0279578)
(-0.0241656 0.00873938 -0.165134)
(-0.0640336 0.00223849 -0.334672)
(-0.0258439 -0.00235743 -0.38918)
(-0.0295972 0.00374216 0.135493)
(-0.0648031 0.00429436 0.200734)
(-0.0712291 0.00121011 0.195961)
(-0.0599937 -0.0034005 0.163829)
(-0.0417141 -0.00804178 0.119482)
(-0.0239183 -0.0114137 0.0594318)
(-0.0187135 -0.0121767 -0.0279578)
(-0.0241656 -0.00873937 -0.165134)
(-0.0640336 -0.00223849 -0.334672)
(-0.0258439 0.00235743 -0.38918)
(-0.0292793 0.0106312 0.13506)
(-0.0631867 0.0120987 0.199345)
(-0.0684366 0.00363106 0.194661)
(-0.0577471 -0.00920479 0.163006)
(-0.0414136 -0.0224856 0.118993)
(-0.0264581 -0.0327059 0.0591107)
(-0.0234735 -0.0359047 -0.0278249)
(-0.0292349 -0.0267532 -0.16309)
(-0.0659138 -0.00733707 -0.329527)
(-0.0256467 0.00748398 -0.38354)
(-0.0282707 0.0152193 0.132798)
(-0.0588382 0.0169094 0.192509)
(-0.0606525 0.00558229 0.186941)
(-0.0502069 -0.0119238 0.156466)
(-0.0375689 -0.030828 0.114418)
(-0.0292693 -0.0468248 0.0569161)
(-0.0331902 -0.0541664 -0.027149)
(-0.0430223 -0.0433313 -0.156998)
(-0.0743533 -0.01371 -0.315402)
(-0.02743 0.0126375 -0.368276)
(-0.0254813 0.014388 0.122803)
(-0.0493863 0.0150947 0.167478)
(-0.0444978 0.00540227 0.158497)
(-0.0332951 -0.00971224 0.131298)
(-0.025763 -0.0268486 0.0962389)
(-0.0284403 -0.0432218 0.0485105)
(-0.0460215 -0.0537633 -0.0237529)
(-0.0677757 -0.0474017 -0.13719)
(-0.0947831 -0.018872 -0.274948)
(-0.0358275 0.0144967 -0.326935)
(-0.0164912 0.00627235 0.0819206)
(-0.0280979 0.00638004 0.092675)
(-0.0177199 0.00255228 0.0808731)
(-0.00841601 -0.00343609 0.0645832)
(-0.00698754 -0.010426 0.0476706)
(-0.0186423 -0.0176959 0.0255242)
(-0.0455194 -0.0232716 -0.0111897)
(-0.0762245 -0.0218628 -0.0738894)
(-0.0964953 -0.0102359 -0.153199)
(-0.0418429 0.00612785 -0.196152)
(-0.0238332 -0.0112243 0.150178)
(-0.0202072 -0.0121112 0.0981648)
(0.0282898 -0.00748299 0.0628873)
(0.0626095 -0.000893855 0.0414903)
(0.0833439 0.0065259 0.0250009)
(0.0854762 0.0144073 0.00713422)
(0.0631263 0.0216127 -0.0214709)
(0.025562 0.0207962 -0.0790036)
(-0.0421211 0.00505415 -0.174194)
(-0.00680512 -0.017941 -0.259835)
(-0.0424803 -0.0230262 0.209702)
(-0.0414165 -0.0261942 0.169909)
(0.0236389 -0.0167682 0.128311)
(0.0795782 -0.00247739 0.0960709)
(0.124264 0.0138368 0.0662986)
(0.152121 0.0303385 0.0323801)
(0.150241 0.0445491 -0.017122)
(0.131079 0.0425433 -0.107547)
(0.040176 0.00989018 -0.256519)
(0.0437607 -0.0320801 -0.369666)
(-0.0477525 -0.0209525 0.21995)
(-0.0509607 -0.0259728 0.190494)
(0.0132034 -0.0171529 0.151964)
(0.0738222 -0.00277072 0.118431)
(0.127466 0.0135734 0.0848195)
(0.169284 0.0289605 0.045014)
(0.181606 0.0400963 -0.0114761)
(0.176808 0.0353322 -0.110596)
(0.0810445 0.0056124 -0.275319)
(0.0632349 -0.022831 -0.39527)
(-0.0487784 -0.0134259 0.220984)
(-0.0537514 -0.0172607 0.194669)
(0.00916877 -0.011272 0.157698)
(0.0710208 -0.00154756 0.124406)
(0.127731 0.00919457 0.0901899)
(0.174762 0.0188163 0.0489457)
(0.19195 0.0248589 -0.00975106)
(0.19125 0.0207529 -0.111781)
(0.0911461 0.00323522 -0.281949)
(0.0663088 -0.0119955 -0.403948)
(-0.0488294 -0.00453362 0.22079)
(-0.0541936 -0.00590917 0.195009)
(0.00845826 -0.00380498 0.158361)
(0.0708852 -0.000437756 0.125199)
(0.128656 0.00320049 0.0910531)
(0.177259 0.00635918 0.0497178)
(0.195555 0.00818558 -0.00952804)
(0.195076 0.00667266 -0.112683)
(0.0923088 0.00108135 -0.284712)
(0.0659439 -0.00357129 -0.407111)
(-0.0488294 0.00453362 0.22079)
(-0.0541936 0.00590917 0.195009)
(0.00845826 0.00380498 0.158361)
(0.0708852 0.000437755 0.125199)
(0.128656 -0.00320049 0.0910531)
(0.177259 -0.00635918 0.0497178)