/*--------------------------------*- C++ -*----------------------------------*\
  =========                 |
  \\      /  F ield         | OpenFOAM: The Open Source CFD Toolbox
   \\    /   O peration     | Website:  https://openfoam.org
    \\  /    A nd           | Version:  9
     \\/     M anipulation  |
\*---------------------------------------------------------------------------*/
FoamFile
{
    format      ascii;
    class       volScalarField;
    location    "0.03";
    object      p;
}
// * * * * * * * * * * * * * * * * * * * * * * * * * * * * * * * * * * * * * //

dimensions      [0 2 -2 0 0 0 0];

internalField   nonuniform List<scalar> 
8000
(
1.00975e-06
2.40224
3.4348
3.9156
4.20398
4.39076
4.52144
4.62231
4.70777
4.78658
4.865
4.94887
5.04467
5.1616
5.31471
5.53162
5.86237
6.40472
7.51036
9.98409
0.00698594
2.52985
3.53212
3.97644
4.24349
4.4161
4.53729
4.63199
4.71324
4.78879
4.86426
4.94478
5.03619
5.14672
5.29009
5.49272
5.80421
6.31925
7.4108
10.0308
0.0546282
2.63992
3.63005
4.05095
4.29808
4.45432
4.56288
4.6481
4.72204
4.79152
4.86141
4.93611
5.02076
5.12284
5.25533
5.44444
5.74131
6.24291
7.33495
10.0287
0.104458
2.71297
3.7008
4.11037
4.34455
4.48855
4.58666
4.66332
4.73018
4.79357
4.85782
4.92689
5.00544
5.10062
5.22523
5.40581
5.69495
6.19211
7.28858
10.0115
0.142568
2.7602
3.74805
4.15217
4.37869
4.51462
4.60523
4.6753
4.73644
4.79475
4.85431
4.9188
4.99271
5.08303
5.20263
5.37842
5.66392
6.15989
7.25977
9.99483
0.169461
2.79093
3.77903
4.1804
4.40246
4.53324
4.61872
4.68403
4.74086
4.79527
4.85121
4.91228
4.98285
5.06993
5.18647
5.35966
5.6435
6.13934
7.24129
9.98158
0.187779
2.81088
3.79911
4.199
4.41842
4.54596
4.62803
4.69004
4.74381
4.79539
4.84871
4.90734
4.97563
5.06061
5.17531
5.3471
5.63019
6.12615
7.22925
9.97185
0.199758
2.82357
3.8118
4.21084
4.4287
4.55424
4.63413
4.69397
4.74566
4.79532
4.84686
4.90385
4.97066
5.05432
5.16795
5.33897
5.6217
6.11779
7.22148
9.9651
0.206961
2.83108
3.81927
4.21782
4.4348
4.55918
4.63779
4.69632
4.74674
4.7952
4.84565
4.90165
4.96756
5.05047
5.16349
5.3341
5.61667
6.11282
7.21679
9.96087
0.210339
2.83457
3.82273
4.22106
4.43763
4.56149
4.6395
4.69741
4.74723
4.79513
4.84506
4.90058
4.96608
5.04864
5.16139
5.33182
5.61431
6.11049
7.21458
9.95884
0.210336
2.83457
3.82273
4.22106
4.43763
4.56149
4.63949
4.6974
4.74723
4.79513
4.84506
4.90058
4.96608
5.04864
5.16139
5.33182
5.61431
6.11049
7.21458
9.95884
0.206954
2.83107
3.81927
4.21781
4.43479
4.55918
4.63779
4.69631
4.74674
4.7952
4.84565
4.90165
4.96756
5.05047
5.16349
5.3341
5.61667
6.11282
7.21679
9.96087
0.199746
2.82356
3.81179
4.21083
4.42869
4.55423
4.63413
4.69397
4.74566
4.79531
4.84686
4.90385
4.97066
5.05432
5.16795
5.33897
5.62171
6.11779
7.22148
9.9651
0.187762
2.81087
3.7991
4.19898
4.4184
4.54595
4.62802
4.69004
4.7438
4.79538
4.84871
4.90734
4.97563
5.06061
5.17531
5.3471
5.63019
6.12615
7.22925
9.97185
0.169438
2.79091
3.77901
4.18039
4.40244
4.53323
4.61871
4.68402
4.74085
4.79527
4.85121
4.91228
4.98285
5.06993
5.18647
5.35966
5.6435
6.13934
7.24129
9.98159
0.142537
2.76017
3.74802
4.15215
4.37867
4.51461
4.60522
4.67529
4.73643
4.79475
4.8543
4.9188
4.9927
5.08303
5.20263
5.37842
5.66392
6.15989
7.25977
9.99483
0.104415
2.71293
3.70076
4.11034
4.34453
4.48853
4.58664
4.6633
4.73017
4.79356
4.85782
4.92688
5.00544
5.10062
5.22523
5.40581
5.69495
6.19211
7.28858
10.0116
0.054565
2.63986
3.63
4.05092
4.29806
4.4543
4.56286
4.64809
4.72203
4.79152
4.8614
4.93611
5.02076
5.12284
5.25533
5.44444
5.74131
6.24291
7.33495
10.0287
0.00689418
2.52977
3.53207
3.9764
4.24346
4.41607
4.53727
4.63198
4.71323
4.78878
4.86425
4.94478
5.03619
5.14672
5.29009
5.49272
5.80421
6.31925
7.41081
10.0308
-0.000111972
2.40214
3.43474
3.91556
4.20395
4.39074
4.52142
4.62229
4.70776
4.78657
4.86499
4.94886
5.04467
5.1616
5.31471
5.53162
5.86238
6.40472
7.51036
9.98409
2.09677
2.99108
3.54869
3.91985
4.18039
4.36434
4.4999
4.60677
4.69758
4.78097
4.8637
4.95184
5.05236
5.17434
5.33109
5.54337
5.84148
6.26086
6.87289
7.83036
2.10632
3.04037
3.56885
3.92403
4.17998
4.36244
4.49782
4.60517
4.69665
4.78069
4.8639
4.95232
5.05277
5.17414
5.32933
5.5388
5.8324
6.23915
6.82849
7.85553
2.13101
3.09573
3.60899
3.95192
4.19957
4.37549
4.50594
4.60966
4.69831
4.77996
4.86088
4.94688
5.04456
5.16258
5.31376
5.51876
5.80834
6.21052
6.79657
7.86058
2.16208
3.13855
3.64746
3.98307
4.22332
4.39241
4.51711
4.61612
4.70087
4.77912
4.8569
4.93979
5.0342
5.14875
5.2963
5.49789
5.78508
6.18625
6.7743
7.85626
2.18939
3.17104
3.6784
4.00955
4.24438
4.40801
4.52772
4.6224
4.7034
4.77834
4.85309
4.93307
5.02463
5.13638
5.28128
5.48066
5.76655
6.16755
6.75745
7.84815
2.21072
3.19498
3.70165
4.0301
4.26124
4.42083
4.53665
4.62776
4.70558
4.77767
4.84981
4.92736
5.01664
5.12628
5.26935
5.46733
5.75251
6.15358
6.7447
7.83962
2.2263
3.21194
3.71826
4.04508
4.27378
4.43057
4.54353
4.63194
4.70728
4.77711
4.84721
4.92288
5.01046
5.11859
5.26042
5.45753
5.74232
6.14349
6.73532
7.83229
2.23697
3.22337
3.72949
4.05533
4.28249
4.43742
4.54843
4.63493
4.7085
4.7767
4.84531
4.91964
5.00603
5.11314
5.25416
5.45074
5.7353
6.13653
6.72875
7.82673
2.24357
3.23039
3.7364
4.06167
4.28792
4.44173
4.55153
4.63684
4.70927
4.77642
4.84408
4.91756
5.0032
5.10968
5.25022
5.44648
5.7309
6.13217
6.72458
7.82306
2.24671
3.23373
3.73968
4.06469
4.29052
4.44381
4.55304
4.63777
4.70965
4.77629
4.84348
4.91654
5.00182
5.10801
5.24832
5.44443
5.72879
6.13007
6.72256
7.82124
2.24671
3.23372
3.73968
4.06468
4.29052
4.44381
4.55303
4.63777
4.70965
4.77629
4.84348
4.91654
5.00182
5.10801
5.24832
5.44443
5.72879
6.13007
6.72256
7.82124
2.24356
3.23039
3.73639
4.06166
4.28792
4.44173
4.55153
4.63684
4.70927
4.77642
4.84408
4.91756
5.0032
5.10968
5.25022
5.44648
5.7309
6.13217
6.72459
7.82306
2.23696
3.22336
3.72948
4.05532
4.28248
4.43741
4.54842
4.63493
4.70849
4.77669
4.8453
4.91964
5.00603
5.11314
5.25416
5.45074
5.7353
6.13653
6.72875
7.82673
2.22629
3.21192
3.71825
4.04506
4.27377
4.43056
4.54352
4.63193
4.70728
4.77711
4.8472
4.92288
5.01046
5.11859
5.26042
5.45753
5.74232
6.14349
6.73532
7.83229
2.2107
3.19496
3.70164
4.03008
4.26122
4.42082
4.53663
4.62775
4.70558
4.77766
4.8498
4.92736
5.01664
5.12628
5.26935
5.46733
5.75251
6.15359
6.7447
7.83962
2.18936
3.17101
3.67838
4.00953
4.24436
4.40799
4.52771
4.62239
4.7034
4.77834
4.85309
4.93307
5.02463
5.13638
5.28128
5.48066
5.76655
6.16755
6.75746
7.84815
2.16204
3.13851
3.64742
3.98304
4.2233
4.39239
4.51709
4.61611
4.70086
4.77912
4.8569
4.93978
5.0342
5.14875
5.2963
5.49789
5.78508
6.18625
6.77431
7.85627
2.13096
3.09569
3.60895
3.95189
4.19955
4.37547
4.50592
4.60964
4.69831
4.77995
4.86087
4.94688
5.04456
5.16258
5.31376
5.51876
5.80834
6.21052
6.79658
7.86059
2.10625
3.04031
3.5688
3.92399
4.17995
4.36241
4.4978
4.60516
4.69664
4.78068
4.86389
4.95231
5.05277
5.17414
5.32933
5.5388
5.8324
6.23915
6.82849
7.85553
2.09668
2.991
3.54864
3.91981
4.18036
4.36431
4.49988
4.60676
4.69757
4.78096
4.8637
4.95184
5.05235
5.17434
5.33109
5.54337
5.84148
6.26086
6.8729
7.83036
3.17987
3.47258
3.77213
4.02481
4.22507
4.3807
4.50405
4.60611
4.69533
4.77852
4.8613
4.94904
5.04762
5.16418
5.30779
5.4901
5.72408
6.01603
6.35318
6.67554
3.20299
3.48428
3.77015
4.01708
4.21644
4.37303
4.49811
4.60208
4.69314
4.77796
4.86215
4.95112
5.05073
5.16804
5.31191
5.49377
5.72644
6.01429
6.34105
6.6617
3.23192
3.51101
3.78863
4.02908
4.22373
4.37688
4.4996
4.60196
4.69185
4.77566
4.85887
4.94675
5.04507
5.16083
5.30287
5.48282
5.71395
6.00034
6.32436
6.64979
3.25858
3.53811
3.81175
4.04715
4.23677
4.38545
4.5045
4.60391
4.6914
4.77312
4.85441
4.9404
5.03679
5.15058
5.29072
5.46902
5.69914
5.98519
6.30938
6.64037
3.28072
3.56126
3.83285
4.06468
4.25021
4.39489
4.51035
4.60668
4.69153
4.77096
4.85016
4.9342
5.02874
5.1408
5.27943
5.45657
5.68612
5.97201
6.29682
6.63186
3.29813
3.57966
3.85016
4.07963
4.26213
4.4036
4.51601
4.60958
4.692
4.76927
4.84654
4.92882
5.02177
5.13241
5.26989
5.44623
5.67541
5.9613
6.28664
6.62423
3.31111
3.59343
3.86334
4.0913
4.27168
4.41077
4.52081
4.61217
4.69258
4.76805
4.8437
4.92455
5.01622
5.12579
5.26243
5.43821
5.66715
5.95305
6.27878
6.61788
3.32017
3.60308
3.87264
4.09971
4.27866
4.41611
4.52446
4.6142
4.69311
4.76722
4.84166
4.92143
5.01217
5.12097
5.25703
5.43243
5.6612
5.9471
6.27308
6.61303
3.32587
3.60917
3.87858
4.10504
4.28317
4.41961
4.52688
4.61557
4.6935
4.76672
4.84035
4.91941
5.00955
5.11786
5.25354
5.4287
5.65736
5.94326
6.26937
6.60979
3.32861
3.61211
3.88145
4.10763
4.28537
4.42133
4.52809
4.61626
4.6937
4.76648
4.83971
4.91842
5.00826
5.11633
5.25184
5.42688
5.65549
5.94138
6.26755
6.60817
3.32861
3.6121
3.88145
4.10763
4.28537
4.42133
4.52808
4.61626
4.6937
4.76648
4.83971
4.91842
5.00826
5.11633
5.25184
5.42688
5.65549
5.94138
6.26755
6.60817
3.32587
3.60917
3.87858
4.10504
4.28316
4.41961
4.52688
4.61557
4.6935
4.76671
4.84035
4.91941
5.00955
5.11786
5.25354
5.4287
5.65736
5.94326
6.26937
6.60979
3.32016
3.60307
3.87263
4.0997
4.27865
4.41611
4.52445
4.61419
4.6931
4.76722
4.84166
4.92143
5.01217
5.12097
5.25703
5.43243
5.6612
5.9471
6.27308
6.61303
3.31109
3.59342
3.86333
4.09129
4.27167
4.41076
4.5208
4.61216
4.69257
4.76805
4.8437
4.92454
5.01622
5.12579
5.26243
5.43821
5.66715
5.95305
6.27878
6.61788
3.29812
3.57964
3.85014
4.07961
4.26212
4.40359
4.516
4.60958
4.692
4.76927
4.84653
4.92882
5.02176
5.13241
5.26989
5.44623
5.67542
5.9613
6.28665
6.62423
3.2807
3.56123
3.83282
4.06466
4.2502
4.39487
4.51034
4.60667
4.69152
4.77095
4.85015
4.93419
5.02874
5.1408
5.27943
5.45657
5.68612
5.97202
6.29682
6.63186
3.25854
3.53808
3.81172
4.04712
4.23675
4.38544
4.50449
4.6039
4.69139
4.77312
4.8544
4.94039
5.03679
5.15058
5.29072
5.46902
5.69914
5.98519
6.30938
6.64037
3.23188
3.51097
3.78859
4.02905
4.22371
4.37686
4.49959
4.60195
4.69184
4.77565
4.85886
4.94674
5.04507
5.16083
5.30287
5.48282
5.71395
6.00034
6.32437
6.64979
3.20294
3.48423
3.77011
4.01705
4.21642
4.37301
4.49809
4.60206
4.69313
4.77795
4.86214
4.95111
5.05073
5.16804
5.31191
5.49377
5.72644
6.01429
6.34105
6.6617
3.1798
3.47253
3.77208
4.02478
4.22504
4.38068
4.50403
4.60609
4.69532
4.77851
4.86129
4.94903
5.04762
5.16418
5.30779
5.4901
5.72409
6.01603
6.35318
6.67554
3.73982
3.83553
3.9955
4.15702
4.30008
4.42232
4.52682
4.61834
4.70119
4.78049
4.85991
4.94356
5.03571
5.14111
5.26477
5.41144
5.58356
5.77592
5.96134
6.06952
3.76542
3.8382
3.99008
4.14895
4.29173
4.41509
4.52132
4.61464
4.69954
4.78039
4.86127
4.94624
5.03959
5.14598
5.27033
5.41722
5.5888
5.77939
5.9581
6.0453
3.796
3.85558
4.00077
4.15502
4.29436
4.41544
4.52028
4.61275
4.69714
4.77758
4.85806
4.94256
5.03533
5.14107
5.26448
5.41052
5.58113
5.77045
5.94547
6.0225
3.82144
3.87536
4.01619
4.16627
4.30172
4.41955
4.52181
4.61229
4.69509
4.77419
4.85345
4.93678
5.0284
5.13296
5.25546
5.40053
5.5704
5.75896
5.9324
6.00659
3.84119
3.89302
4.03123
4.17817
4.31031
4.42505
4.52462
4.61282
4.69371
4.77118
4.84899
4.93101
5.02141
5.12489
5.24651
5.39089
5.56027
5.74837
5.9212
5.99533
3.85626
3.90756
4.04427
4.18902
4.3186
4.43074
4.52788
4.61394
4.69296
4.7688
4.84518
4.92592
5.01521
5.11775
5.23862
5.38248
5.55153
5.73938
5.91207
5.98687
3.86739
3.91878
4.05464
4.19792
4.32564
4.43578
4.53097
4.61523
4.69264
4.76706
4.84219
4.92184
5.01019
5.11197
5.23227
5.37573
5.54454
5.73224
5.90496
5.98046
3.87518
3.92683
4.06222
4.20455
4.33101
4.43973
4.53349
4.61639
4.69257
4.76588
4.84004
4.91885
5.00649
5.1077
5.22756
5.37073
5.53937
5.72698
5.89977
5.9758
3.8801
3.93198
4.06714
4.2089
4.33459
4.44241
4.53525
4.61725
4.69259
4.76516
4.83866
4.9169
5.00407
5.1049
5.22448
5.36746
5.53599
5.72355
5.89639
5.97274
3.88247
3.93449
4.06954
4.21105
4.33637
4.44376
4.53614
4.6177
4.69263
4.76482
4.83799
4.91595
5.00288
5.10352
5.22296
5.36584
5.53432
5.72185
5.89472
5.97122
3.88247
3.93449
4.06954
4.21105
4.33637
4.44376
4.53614
4.6177
4.69263
4.76482
4.83799
4.91595
5.00288
5.10352
5.22296
5.36584
5.53432
5.72185
5.89472
5.97123
3.88009
3.93198
4.06713
4.2089
4.33459
4.44241
4.53524
4.61724
4.69259
4.76516
4.83866
4.9169
5.00407
5.1049
5.22448
5.36746
5.53599
5.72355
5.89639
5.97274
3.87517
3.92682
4.06221
4.20454
4.33101
4.43973
4.53349
4.61639
4.69256
4.76588
4.84003
4.91884
5.00649
5.1077
5.22756
5.37073
5.53937
5.72699
5.89977
5.9758
3.86738
3.91877
4.05463
4.1979
4.32563
4.43577
4.53097
4.61522
4.69264
4.76705
4.84219
4.92184
5.01019
5.11197
5.23227
5.37573
5.54454
5.73224
5.90496
5.98046
3.85624
3.90755
4.04426
4.189
4.31859
4.43073
4.52787
4.61393
4.69296
4.7688
4.84517
4.92592
5.01521
5.11775
5.23863
5.38248
5.55153
5.73938
5.91207
5.98687
3.84117
3.893
4.03121
4.17815
4.3103
4.42504
4.52461
4.61282
4.69371
4.77118
4.84899
4.931
5.02141
5.12489
5.24651
5.39089
5.56027
5.74837
5.92121
5.99533
3.82141
3.87533
4.01617
4.16625
4.3017
4.41954
4.5218
4.61228
4.69508
4.77418
4.85345
4.93678
5.02839
5.13296
5.25546
5.40053
5.5704
5.75896
5.9324
6.0066
3.79597
3.85554
4.00074
4.155
4.29434
4.41543
4.52027
4.61274
4.69713
4.77757
4.85805
4.94255
5.03533
5.14107
5.26448
5.41052
5.58113
5.77045
5.94548
6.0225
3.76538
3.83816
3.99004
4.14893
4.29171
4.41507
4.52131
4.61463
4.69953
4.78038
4.86126
4.94624
5.03958
5.14598
5.27033
5.41722
5.5888
5.77939
5.9581
6.0453
3.73978
3.83549
3.99546
4.15699
4.30006
4.4223
4.52681
4.61833
4.70118
4.78048
4.85991
4.94356
5.03571
5.14111
5.26477
5.41144
5.58356
5.77592
5.96134
6.06952
4.07961
4.10281
4.18455
4.28421
4.3832
4.47589
4.56108
4.6399
4.71435
4.78709
4.86063
4.93763
5.02079
5.11268
5.21533
5.32928
5.45185
5.57428
5.67224
5.69915
4.1031
4.10314
4.1787
4.27703
4.37619
4.47002
4.55678
4.6372
4.7133
4.78748
4.86234
4.94057
5.02487
5.11782
5.22139
5.33595
5.45847
5.57978
5.67168
5.67404
4.13224
4.11626
4.18557
4.2803
4.3769
4.46915
4.55501
4.63498
4.71085
4.78492
4.8597
4.93784
5.02202
5.11484
5.21823
5.3325
5.45432
5.5741
5.66114
5.64745
4.15639
4.13196
4.19664
4.28776
4.38125
4.47102
4.555
4.63355
4.70833
4.78153
4.85557
4.93304
5.01661
5.10889
5.21183
5.32564
5.44676
5.5653
5.64932
5.62806
4.17478
4.14631
4.20795
4.2962
4.38692
4.47424
4.55613
4.63297
4.70635
4.77838
4.85143
4.92804
5.01087
5.10253
5.20499
5.31836
5.43896
5.55663
5.639
5.61467
4.18853
4.15835
4.21813
4.30429
4.39279
4.47797
4.55792
4.63306
4.705
4.7758
4.8478
4.92351
5.0056
5.09665
5.19865
5.31164
5.43184
5.54896
5.6305
5.6052
4.19855
4.16778
4.22646
4.31117
4.39802
4.4815
4.55984
4.63352
4.70418
4.77387
4.84492
4.91982
5.00124
5.09176
5.19335
5.30603
5.42594
5.54272
5.62388
5.59841
4.20551
4.17462
4.23268
4.31644
4.40215
4.4844
4.56153
4.63409
4.70373
4.77254
4.84282
4.91708
4.99797
5.08807
5.18934
5.30177
5.42148
5.53805
5.61906
5.59368
4.20988
4.17905
4.23678
4.31997
4.40496
4.48643
4.56276
4.63456
4.70352
4.77172
4.84148
4.91529
4.99581
5.08562
5.18667
5.29894
5.41851
5.53497
5.61591
5.59066
4.21199
4.18122
4.23881
4.32173
4.40638
4.48746
4.5634
4.63483
4.70344
4.77134
4.84082
4.91441
4.99474
5.08441
5.18534
5.29753
5.41704
5.53344
5.61436
5.58919
4.21199
4.18122
4.2388
4.32173
4.40638
4.48746
4.5634
4.63483
4.70344
4.77133
4.84082
4.91441
4.99474
5.08441
5.18534
5.29753
5.41704
5.53344
5.61436
5.58919
4.20988
4.17905
4.23678
4.31997
4.40496
4.48642
4.56276
4.63456
4.70352
4.77172
4.84148
4.91529
4.99581
5.08562
5.18667
5.29894
5.41851
5.53497
5.61591
5.59066
4.2055
4.17462
4.23267
4.31643
4.40214
4.48439
4.56152
4.63408
4.70373
4.77254
4.84282
4.91708
4.99797
5.08807
5.18934
5.30177
5.42148
5.53805
5.61906
5.59368
4.19854
4.16777
4.22645
4.31116
4.39801
4.48149
4.55983
4.63352
4.70417
4.77387
4.84491
4.91982
5.00124
5.09176
5.19335
5.30603
5.42594
5.54272
5.62389
5.59842
4.18851
4.15833
4.21811
4.30427
4.39278
4.47796
4.55791
4.63305
4.70499
4.7758
4.8478
4.92351
5.0056
5.09665
5.19865
5.31164
5.43184
5.54896
5.63051
5.6052
4.17476
4.14629
4.20793
4.29619
4.38691
4.47423
4.55613
4.63296
4.70634
4.77837
4.85142
4.92803
5.01087
5.10253
5.20499
5.31836
5.43896
5.55663
5.639
5.61467
4.15637
4.13194
4.19662
4.28774
4.38123
4.47101
4.55499
4.63354
4.70832
4.78152
4.85557
4.93304
5.01661
5.10889
5.21183
5.32564
5.44676
5.5653
5.64933
5.62807
4.13221
4.11623
4.18555
4.28028
4.37688
4.46913
4.555
4.63497
4.71084
4.78491
4.8597
4.93783
5.02202
5.11484
5.21823
5.33251
5.45432
5.5741
5.66114
5.64746
4.10307
4.10311
4.17868
4.27701
4.37617
4.47001
4.55676
4.63719
4.71329
4.78747
4.86234
4.94057
5.02487
5.11782
5.22139
5.33595
5.45847
5.57979
5.67169
5.67405
4.07957
4.10278
4.18452
4.28419
4.38318
4.47587
4.56107
4.63989
4.71434
4.78708
4.86062
4.93763
5.02079
5.11267
5.21533
5.32928
5.45185
5.57428
5.67225
5.69915
4.29927
4.29652
4.33683
4.39734
4.46475
4.53365
4.60147
4.66759
4.73246
4.79726
4.86333
4.93211
5.00495
5.08281
5.16577
5.25224
5.33786
5.41441
5.46448
5.46128
4.31852
4.29604
4.33151
4.39136
4.4592
4.52918
4.59833
4.66577
4.73198
4.79798
4.86516
4.93498
5.00882
5.08764
5.17152
5.25869
5.34446
5.42021
5.46494
5.43953
4.34442
4.30668
4.33658
4.39359
4.45949
4.52832
4.59685
4.66401
4.73011
4.79612
4.86337
4.9333
5.00726
5.08624
5.17025
5.25735
5.34244
5.41645
5.45591
5.41375
4.36679
4.31992
4.34531
4.39922
4.46259
4.52948
4.59656
4.66266
4.72797
4.7934
4.86019
4.92977
5.00347
5.08226
5.1661
5.25289
5.33719
5.40955
5.44521
5.39358
4.38406
4.33222
4.35446
4.40578
4.46681
4.53171
4.59714
4.6619
4.72615
4.79073
4.85684
4.92587
4.99915
5.0776
5.16117
5.24761
5.33125
5.40238
5.43564
5.37922
4.39698
4.34266
4.36286
4.4122
4.47131
4.53442
4.59827
4.66168
4.72481
4.78845
4.8538
4.92221
4.99499
5.07307
5.15632
5.24242
5.32554
5.39582
5.42771
5.3691
4.40634
4.35089
4.36983
4.41778
4.47541
4.53708
4.59959
4.66182
4.72392
4.7867
4.85133
4.91915
4.99145
5.06916
5.15211
5.2379
5.32063
5.39037
5.42152
5.36199
4.41279
4.3569
4.3751
4.42212
4.47871
4.53932
4.60081
4.66211
4.72339
4.78547
4.8495
4.91683
4.98874
5.06613
5.14882
5.23438
5.31685
5.38625
5.41701
5.35715
4.41683
4.3608
4.3786
4.42506
4.48099
4.54091
4.60173
4.66239
4.72311
4.78469
4.84831
4.91529
4.98692
5.06408
5.1466
5.23199
5.31429
5.3835
5.41407
5.35412
4.41878
4.36272
4.38034
4.42653
4.48215
4.54173
4.60221
4.66256
4.72299
4.78432
4.84773
4.91453
4.98601
5.06306
5.14548
5.23079
5.31301
5.38213
5.41262
5.35266
4.41878
4.36272
4.38034
4.42653
4.48215
4.54173
4.60221
4.66256
4.72299
4.78432
4.84773
4.91453
4.98601
5.06306
5.14548
5.23079
5.31301
5.38213
5.41262
5.35266
4.41683
4.3608
4.3786
4.42505
4.48099
4.5409
4.60172
4.66239
4.72311
4.78469
4.84831
4.91529
4.98692
5.06408
5.1466
5.23199
5.31429
5.3835
5.41407
5.35412
4.41279
4.35689
4.3751
4.42211
4.47871
4.53931
4.60081
4.66211
4.72339
4.78546
4.8495
4.91683
4.98874
5.06613
5.14882
5.23438
5.31685
5.38625
5.41701
5.35716
4.40633
4.35088
4.36982
4.41777
4.4754
4.53707
4.59959
4.66181
4.72392
4.7867
4.85133
4.91915
4.99145
5.06915
5.15211
5.2379
5.32064
5.39037
5.42152
5.362
4.39696
4.34264
4.36284
4.41219
4.4713
4.53441
4.59826
4.66168
4.7248
4.78845
4.8538
4.92221
4.99499
5.07307
5.15632
5.24242
5.32554
5.39582
5.42771
5.3691
4.38405
4.33221
4.35445
4.40576
4.4668
4.5317
4.59713
4.66189
4.72614
4.79072
4.85684
4.92587
4.99915
5.0776
5.16117
5.24761
5.33125
5.40238
5.43565
5.37922
4.36677
4.3199
4.3453
4.3992
4.46258
4.52947
4.59655
4.66265
4.72796
4.79339
4.86019
4.92977
5.00347
5.08226
5.1661
5.25289
5.33719
5.40955
5.44521
5.39358
4.3444
4.30666
4.33656
4.39357
4.45948
4.52831
4.59684
4.664
4.7301
4.79612
4.86337
4.93329
5.00726
5.08624
5.17025
5.25735
5.34244
5.41645
5.45592
5.41376
4.31849
4.29601
4.33148
4.39134
4.45918
4.52916
4.59831
4.66576
4.73197
4.79797
4.86515
4.93498
5.00881
5.08764
5.17152
5.25869
5.34446
5.42021
5.46494
5.43954
4.29924
4.29649
4.33681
4.39732
4.46473
4.53363
4.60146
4.66758
4.73245
4.79726
4.86333
4.93211
5.00495
5.0828
5.16577
5.25224
5.33786
5.41441
5.46448
5.46129
4.44837
4.43792
4.45695
4.49343
4.53911
4.58989
4.64317
4.69767
4.75302
4.80942
4.86733
4.92726
4.98954
5.05407
5.11986
5.18447
5.24361
5.29097
5.31557
5.30315
4.4634
4.43714
4.45234
4.4885
4.53469
4.58644
4.64085
4.69645
4.75284
4.8102
4.869
4.92978
4.9929
5.05826
5.12485
5.19013
5.24948
5.29623
5.31637
5.28578
4.48562
4.44608
4.45648
4.49035
4.53507
4.58599
4.63995
4.69536
4.75172
4.80914
4.86808
4.92904
4.99239
5.058
5.1248
5.19002
5.24863
5.29354
5.3086
5.26288
4.50584
4.45757
4.46382
4.49506
4.53772
4.58711
4.63996
4.69455
4.75033
4.80736
4.86602
4.92682
4.9901
5.05568
5.1224
5.18729
5.24496
5.28799
5.29899
5.24367
4.52191
4.46843
4.47163
4.50057
4.54127
4.58904
4.64058
4.69413
4.7491
4.8055
4.8637
4.92416
4.98719
5.05259
5.11911
5.18362
5.24047
5.28199
5.29022
5.22942
4.53409
4.47773
4.47887
4.506
4.54504
4.59133
4.64159
4.69406
4.74815
4.80384
4.86148
4.92151
4.98421
5.04935
5.11562
5.17975
5.23593
5.27638
5.28288
5.2192
4.54295
4.48512
4.48493
4.51075
4.54849
4.59356
4.64272
4.69423
4.7475
4.80252
4.85962
4.91921
4.98157
5.04644
5.11244
5.17623
5.23193
5.27165
5.27712
5.21202
4.54906
4.49052
4.48954
4.51448
4.55128
4.59545
4.64375
4.6945
4.74711
4.80157
4.8582
4.91742
4.97949
5.0441
5.10988
5.17342
5.22877
5.26803
5.27293
5.20717
4.55287
4.49404
4.49261
4.51701
4.55322
4.59679
4.64452
4.69475
4.74689
4.80096
4.85726
4.91622
4.97806
5.0425
5.10811
5.17147
5.22661
5.2656
5.2702
5.20416
4.55471
4.49577
4.49415
4.51828
4.55421
4.59748
4.64492
4.69489
4.7468
4.80067
4.8568
4.91561
4.97734
5.04168
5.10721
5.17048
5.22551
5.26439
5.26886
5.20272
4.5547
4.49577
4.49414
4.51828
4.55421
4.59748
4.64492
4.69489
4.7468
4.80067
4.8568
4.91561
4.97734
5.04168
5.10721
5.17048
5.22551
5.26439
5.26886
5.20272
4.55287
4.49404
4.49261
4.517
4.55322
4.59678
4.64451
4.69474
4.74689
4.80096
4.85726
4.91622
4.97806
5.0425
5.10811
5.17147
5.22661
5.2656
5.2702
5.20417
4.54905
4.49052
4.48954
4.51447
4.55128
4.59544
4.64374
4.6945
4.7471
4.80157
4.8582
4.91742
4.97949
5.0441
5.10988
5.17342
5.22877
5.26803
5.27293
5.20717
4.54294
4.48511
4.48492
4.51075
4.54848
4.59356
4.64271
4.69423
4.7475
4.80252
4.85962
4.91921
4.98157
5.04644
5.11244
5.17623
5.23193
5.27165
5.27713
5.21203
4.53408
4.47772
4.47886
4.50599
4.54503
4.59132
4.64158
4.69406
4.74814
4.80384
4.86148
4.92151
4.98421
5.04935
5.11562
5.17975
5.23593
5.27638
5.28288
5.2192
4.5219
4.46842
4.47162
4.50055
4.54126
4.58903
4.64057
4.69412
4.74909
4.80549
4.86369
4.92415
4.98719
5.05259
5.11911
5.18362
5.24047
5.28199
5.29022
5.22943
4.50582
4.45756
4.46381
4.49504
4.53771
4.5871
4.63995
4.69455
4.75032
4.80735
4.86602
4.92682
4.9901
5.05568
5.1224
5.18729
5.24497
5.28799
5.299
5.24367
4.4856
4.44606
4.45646
4.49034
4.53506
4.58598
4.63994
4.69535
4.75171
4.80914
4.86807
4.92904
4.99239
5.058
5.1248
5.19002
5.24863
5.29355
5.30861
5.26288
4.46338
4.43712
4.45232
4.48848
4.53467
4.58643
4.64084
4.69644
4.75284
4.8102
4.869
4.92978
4.9929
5.05826
5.12485
5.19013
5.24949
5.29623
5.31637
5.28579
4.44835
4.4379
4.45693
4.49342
4.5391
4.58988
4.64316
4.69767
4.75301
4.80941
4.86732
4.92725
4.98954
5.05407
5.11985
5.18447
5.24361
5.29097
5.31557
5.30315
4.55417
4.54258
4.55075
4.5727
4.60374
4.64116
4.68281
4.72727
4.77378
4.82201
4.87178
4.92297
4.97526
5.02788
5.07936
5.1272
5.16781
5.19684
5.20796
5.19411
4.56578
4.5417
4.54677
4.56852
4.60008
4.63836
4.68095
4.72631
4.77366
4.82265
4.87313
4.925
4.97797
5.03128
5.08346
5.1319
5.17274
5.20131
5.20879
5.18062
4.58452
4.54928
4.55027
4.57017
4.6006
4.63827
4.68056
4.72581
4.77317
4.82224
4.87288
4.92496
4.97817
5.03173
5.08409
5.13241
5.17247
5.19923
5.20213
5.1611
4.60245
4.55932
4.55662
4.57429
4.60306
4.63954
4.68098
4.72562
4.77255
4.82136
4.87184
4.92386
4.97708
5.03065
5.08292
5.13084
5.16987
5.19467
5.19363
5.14375
4.61717
4.56898
4.56346
4.57912
4.60625
4.64145
4.68185
4.72569
4.772
4.82035
4.87051
4.92232
4.97539
5.02884
5.0809
5.12837
5.16645
5.18961
5.18571
5.13035
4.62853
4.57736
4.56985
4.5839
4.60962
4.64359
4.68297
4.72596
4.77159
4.8194
4.86916
4.92066
4.9735
5.02674
5.07854
5.12557
5.16286
5.18481
5.17901
5.12052
4.63688
4.58405
4.57524
4.58809
4.61268
4.64564
4.68412
4.72633
4.77132
4.81861
4.86795
4.91913
4.97171
5.02472
5.07626
5.12291
5.15962
5.18071
5.17373
5.11355
4.64266
4.58898
4.57935
4.59138
4.61516
4.64734
4.68512
4.72671
4.77117
4.81802
4.86701
4.9179
4.97024
5.02305
5.07436
5.12072
5.15702
5.17756
5.16988
5.10883
4.64628
4.59219
4.5821
4.59363
4.61688
4.64855
4.68585
4.72701
4.7711
4.81764
4.86636
4.91704
4.96921
5.02186
5.07302
5.11918
5.15522
5.17543
5.16738
5.10592
4.64802
4.59378
4.58347
4.59476
4.61775
4.64917
4.68623
4.72718
4.77108
4.81745
4.86604
4.91661
4.96869
5.02125
5.07232
5.11839
5.1543
5.17437
5.16614
5.10453
4.64802
4.59377
4.58347
4.59476
4.61775
4.64917
4.68623
4.72718
4.77108
4.81745
4.86604
4.91661
4.96869
5.02125
5.07232
5.11839
5.1543
5.17437
5.16614
5.10453
4.64628
4.59219
4.5821
4.59363
4.61687
4.64855
4.68585
4.72701
4.7711
4.81764
4.86636
4.91704
4.96921
5.02186
5.07302
5.11918
5.15522
5.17543
5.16738
5.10592
4.64266
4.58897
4.57934
4.59138
4.61515
4.64734
4.68512
4.72671
4.77117
4.81802
4.86701
4.9179
4.97024
5.02305
5.07436
5.12072
5.15702
5.17756
5.16988
5.10883
4.63687
4.58404
4.57523
4.58809
4.61268
4.64563
4.68411
4.72633
4.77132
4.81861
4.86795
4.91913
4.97171
5.02472
5.07626
5.12291
5.15962
5.18072
5.17374
5.11355
4.62852
4.57735
4.56984
4.58389
4.60961
4.64358
4.68297
4.72595
4.77159
4.8194
4.86916
4.92066
4.9735
5.02674
5.07854
5.12557
5.16287
5.18481
5.17901
5.12052
4.61716
4.56897
4.56345
4.57911
4.60625
4.64144
4.68185
4.72568
4.772
4.82035
4.87051
4.92232
4.97539
5.02884
5.0809
5.12837
5.16645
5.18962
5.18571
5.13035
4.60244
4.5593
4.55661
4.57428
4.60305
4.63954
4.68097
4.72561
4.77255
4.82135
4.87184
4.92386
4.97707
5.03065
5.08292
5.13084
5.16987
5.19467
5.19363
5.14375
4.58451
4.54926
4.55026
4.57016
4.60059
4.63826
4.68055
4.7258
4.77316
4.82224
4.87288
4.92496
4.97817
5.03173
5.08409
5.13241
5.17247
5.19924
5.20214
5.16111
4.56576
4.54169
4.54676
4.56851
4.60007
4.63835
4.68094
4.7263
4.77366
4.82264
4.87313
4.925
4.97796
5.03128
5.08346
5.1319
5.17274
5.20131
5.20879
5.18062
4.55415
4.54256
4.55073
4.57268
4.60373
4.64115
4.6828
4.72726
4.77378
4.822
4.87178
4.92297
4.97526
5.02788
5.07936
5.1272
5.16781
5.19685
5.20796
5.19412
4.63153
4.62093
4.62361
4.63681
4.65811
4.68584
4.71838
4.75446
4.79316
4.83385
4.87601
4.91909
4.96237
5.00479
5.04475
5.08002
5.10784
5.12546
5.12951
5.11686
4.64053
4.62002
4.62017
4.63322
4.65497
4.68343
4.71676
4.75357
4.79294
4.83424
4.87696
4.92058
4.96441
5.00741
5.04796
5.08377
5.11184
5.12912
5.13026
5.10641
4.65622
4.62644
4.62314
4.63468
4.65555
4.68358
4.71671
4.75347
4.79288
4.83427
4.87714
4.92096
4.96501
5.00821
5.04888
5.08451
5.11181
5.12742
5.12459
5.09013
4.67188
4.63518
4.62866
4.63831
4.65785
4.68496
4.71745
4.75376
4.79287
4.83408
4.87687
4.92067
4.96475
5.00795
5.04849
5.08366
5.10989
5.12361
5.11717
5.07494
4.68512
4.64375
4.63469
4.64261
4.66079
4.68687
4.71856
4.75426
4.7929
4.83379
4.87635
4.92001
4.96399
5.00707
5.04736
5.08201
5.10724
5.11931
5.11013
5.06281
4.69554
4.65128
4.64037
4.64688
4.66387
4.68895
4.71983
4.75486
4.79298
4.83346
4.87572
4.91916
4.96295
5.00584
5.04585
5.08001
5.10439
5.1152
5.10412
5.05371
4.7033
4.65734
4.6452
4.65064
4.66666
4.69089
4.72105
4.75547
4.79309
4.83317
4.87511
4.9183
4.96188
5.00456
5.04429
5.07803
5.10177
5.11166
5.09935
5.04718
4.70872
4.66184
4.6489
4.65359
4.6689
4.6925
4.72208
4.756
4.7932
4.83293
4.8746
4.91756
4.96095
5.00343
5.04294
5.07635
5.09963
5.10893
5.09586
5.04273
4.71213
4.66478
4.65138
4.65561
4.67046
4.69362
4.72281
4.75638
4.79329
4.83277
4.87423
4.91703
4.96028
5.00261
5.04195
5.07515
5.09815
5.10708
5.09358
5.03998
4.71377
4.66623
4.65262
4.65663
4.67126
4.6942
4.72319
4.75659
4.79334
4.83269
4.87405
4.91675
4.95992
5.00218
5.04144
5.07453
5.09739
5.10615
5.09247
5.03867
4.71377
4.66623
4.65262
4.65663
4.67126
4.6942
4.72319
4.75659
4.79333
4.83269
4.87405
4.91675
4.95992
5.00218
5.04144
5.07453
5.09739
5.10615
5.09247
5.03867
4.71213
4.66478
4.65138
4.65561
4.67046
4.69362
4.72281
4.75638
4.79329
4.83277
4.87423
4.91703
4.96028
5.00261
5.04195
5.07515
5.09815
5.10708
5.09358
5.03998
4.70872
4.66183
4.6489
4.65359
4.6689
4.69249
4.72207
4.756
4.7932
4.83293
4.8746
4.91756
4.96095
5.00343
5.04294
5.07635
5.09963
5.10893
5.09586
5.04273
4.7033
4.65734
4.64519
4.65063
4.66665
4.69089
4.72105
4.75547
4.79309
4.83316
4.87511
4.9183
4.96188
5.00456
5.04429
5.07803
5.10177
5.11166
5.09935
5.04718
4.69554
4.65127
4.64037
4.64687
4.66386
4.68894
4.71982
4.75486
4.79298
4.83346
4.87572
4.91916
4.96295
5.00584
5.04585
5.08001
5.1044
5.1152
5.10412
5.05371
4.68511
4.64374
4.63468
4.6426
4.66079
4.68686
4.71856
4.75425
4.7929
4.83378
4.87635
4.92001
4.96398
5.00707
5.04736
5.08201
5.10724
5.11932
5.11013
5.06281
4.67187
4.63517
4.62865
4.63831
4.65784
4.68495
4.71745
4.75376
4.79286
4.83408
4.87687
4.92067
4.96475
5.00795
5.04849
5.08366
5.10989
5.12361
5.11717
5.07494
4.65621
4.62642
4.62313
4.63467
4.65554
4.68357
4.71671
4.75346
4.79287
4.83427
4.87714
4.92096
4.96501
5.00821
5.04888
5.08451
5.11181
5.12743
5.12459
5.09014
4.64052
4.62001
4.62016
4.63321
4.65496
4.68342
4.71675
4.75357
4.79294
4.83424
4.87696
4.92058
4.96441
5.00741
5.04797
5.08377
5.11184
5.12912
5.13026
5.10642
4.63151
4.62091
4.6236
4.6368
4.6581
4.68583
4.71837
4.75445
4.79316
4.83385
4.876
4.91908
4.96237
5.00479
5.04475
5.08002
5.10784
5.12546
5.12951
5.11686
4.68906
4.67997
4.67996
4.68791
4.70271
4.72345
4.74898
4.7782
4.81022
4.84425
4.87959
4.91547
4.95097
4.98493
5.01584
5.04184
5.06093
5.07149
5.07195
5.06116
4.6961
4.67909
4.67698
4.68479
4.69997
4.72132
4.74749
4.77731
4.80986
4.84438
4.88016
4.91647
4.95243
4.98687
5.01829
5.04477
5.06412
5.07444
5.07258
5.05305
4.70917
4.68449
4.67949
4.68604
4.70053
4.72157
4.74762
4.77743
4.81003
4.84464
4.88056
4.91704
4.95317
4.98776
5.01924
5.04551
5.06414
5.07299
5.06778
5.03961
4.72269
4.69205
4.68427
4.68924
4.70264
4.72296
4.74853
4.77801
4.8104
4.84489
4.88077
4.91725
4.9534
4.98796
5.01926
5.04505
5.06265
5.06976
5.06138
5.02658
4.73441
4.6996
4.68956
4.69305
4.70533
4.72482
4.74977
4.77878
4.81083
4.84509
4.8808
4.91718
4.95324
4.98767
5.0187
5.04394
5.06055
5.0661
5.05522
5.01588
4.74381
4.7063
4.6946
4.69685
4.70813
4.72681
4.75112
4.77962
4.81127
4.84522
4.88071
4.91692
4.95282