/*--------------------------------*- C++ -*----------------------------------*\
  =========                 |
  \\      /  F ield         | OpenFOAM: The Open Source CFD Toolbox
   \\    /   O peration     | Website:  https://openfoam.org
    \\  /    A nd           | Version:  9
     \\/     M anipulation  |
\*---------------------------------------------------------------------------*/
FoamFile
{
    format      ascii;
    class       volScalarField;
    location    "0.03";
    object      p;
}
// * * * * * * * * * * * * * * * * * * * * * * * * * * * * * * * * * * * * * //

dimensions      [0 2 -2 0 0 0 0];

internalField   nonuniform List<scalar> 
1000
(
-1.15526e-08
0.000846732
0.0033652
0.00719692
0.0118999
0.0169637
0.021826
0.025914
0.0286779
0.0296568
2.82457e-05
0.00079128
0.00330776
0.0071597
0.0118928
0.0169917
0.021889
0.0260045
0.0287711
0.0296664
6.29213e-05
0.000801584
0.00330949
0.0071615
0.0119001
0.0170082
0.021915
0.0260361
0.0287989
0.0296672
9.00498e-05
0.00081544
0.00331755
0.00716758
0.0119074
0.0170184
0.0219281
0.0260502
0.0288094
0.0296667
0.000105009
0.000825832
0.00332465
0.00717277
0.011912
0.0170232
0.0219333
0.026055
0.0288123
0.0296658
0.000104764
0.000825618
0.00332449
0.00717265
0.0119119
0.0170232
0.0219333
0.026055
0.0288122
0.0296658
8.92377e-05
0.000814754
0.00331703
0.00716721
0.0119071
0.0170182
0.021928
0.0260501
0.0288093
0.0296667
6.12374e-05
0.000800267
0.00330855
0.00716086
0.0118997
0.0170079
0.0219148
0.026036
0.0287988
0.0296672
2.52746e-05
0.000789143
0.00330637
0.00715881
0.0118922
0.0169913
0.0218887
0.0260043
0.028771
0.0296664
-4.12142e-06
0.0008436
0.00336329
0.00719581
0.0118992
0.0169632
0.0218257
0.0259138
0.0286778
0.0296568
-0.00081322
6.56995e-05
0.00272277
0.00675109
0.0116924
0.0170228
0.0221613
0.0265093
0.0294769
0.030526
-0.000683493
9.77882e-05
0.00273603
0.00676012
0.0117036
0.0170407
0.0221877
0.0265413
0.0294965
0.0304449
-0.000611405
0.000135654
0.00275992
0.00677628
0.0117166
0.0170538
0.0222017
0.0265538
0.0295004
0.0304168
-0.000567029
0.000165333
0.00277997
0.00679001
0.0117269
0.0170628
0.0222099
0.0265599
0.0295006
0.030404
-0.000545367
0.000181547
0.00279148
0.00679796
0.0117326
0.0170671
0.0222132
0.0265617
0.0294998
0.0303988
-0.000545574
0.000181368
0.00279134
0.00679785
0.0117325
0.017067
0.0222131
0.0265616
0.0294997
0.0303988
-0.000567704
0.000164742
0.00277951
0.00678967
0.0117267
0.0170626
0.0222098
0.0265598
0.0295005
0.0304039
-0.000612688
0.00013457
0.00275911
0.00677571
0.0117162
0.0170536
0.0222015
0.0265537
0.0295003
0.0304168
-0.000685605
9.61058e-05
0.00273485
0.00675932
0.011703
0.0170403
0.0221874
0.0265411
0.0294964
0.0304449
-0.000816316
6.34268e-05
0.0027213
0.00675013
0.0116918
0.0170224
0.022161
0.0265091
0.0294768
0.030526
-0.00355288
-0.00250553
0.000624851
0.00532332
0.0110622
0.0172648
0.0232943
0.0284726
0.0320838
0.0334083
-0.00336221
-0.0024353
0.000667007
0.00535242
0.0110847
0.0172864
0.0233182
0.0284976
0.0320905
0.0332926
-0.00325455
-0.00237202
0.00070942
0.00538029
0.0111031
0.0172994
0.0233275
0.0285021
0.0320841
0.0332471
-0.0031886
-0.00232497
0.000742033
0.00540155
0.0111164
0.0173074
0.0233318
0.0285021
0.0320763
0.0332241
-0.00315696
-0.00230053
0.000759407
0.00541288
0.0111231
0.0173109
0.0233327
0.0285007
0.0320714
0.0332142
-0.00315712
-0.00230067
0.000759289
0.00541279
0.011123
0.0173108
0.0233326
0.0285006
0.0320714
0.0332142
-0.0031891
-0.00232541
0.000741668
0.00540127
0.0111161
0.0173072
0.0233317
0.028502
0.0320762
0.033224
-0.00325545
-0.0023728
0.0007088
0.00537981
0.0111028
0.0172991
0.0233273
0.028502
0.032084
0.033247
-0.00336354
-0.00243643
0.000666142
0.00535178
0.0110842
0.017286
0.023318
0.0284974
0.0320904
0.0332925
-0.00355472
-0.00250697
0.000623792
0.00532255
0.0110616
0.0172643
0.023294
0.0284725
0.0320837
0.0334082
-0.00848568
-0.0070739
-0.00307393
0.00281061
0.00993432
0.0176434
0.0252278
0.031892
0.0367079
0.03863
-0.00821579
-0.0069578
-0.00299863
0.0028626
0.00997132
0.0176734
0.0252571
0.0319195
0.0367117
0.0384861
-0.00805931
-0.00686025
-0.00293305
0.00290376
0.00999481
0.0176847
0.0252591
0.0319161
0.0366959
0.0384244
-0.00796338
-0.00679002
-0.00288506
0.00293298
0.0100098
0.0176898
0.0252579
0.0319083
0.0366789
0.0383908
-0.00791762
-0.00675428
-0.00286026
0.00294792
0.0100169
0.0176912
0.0252553
0.0319022
0.036669
0.0383757
-0.00791773
-0.00675437
-0.00286034
0.00294785
0.0100168
0.0176912
0.0252552
0.0319022
0.0366689
0.0383756
-0.0079637
-0.00679031
-0.00288531
0.00293276
0.0100096
0.0176897
0.0252578
0.0319082
0.0366788
0.0383907
-0.00805985
-0.00686073
-0.00293346
0.0029034
0.00999449
0.0176844
0.0252589
0.0319159
0.0366958
0.0384242
-0.00821654
-0.00695847
-0.00299918
0.00286213
0.0099709
0.0176731
0.0252569
0.0319194
0.0367115
0.038486
-0.00848665
-0.00707472
-0.0030746
0.00281006
0.00993383
0.017643
0.0252276
0.0318918
0.0367078
0.0386299
-0.0162945
-0.0141809
-0.00875688
-0.00104582
0.00814457
0.0180849
0.0280163
0.0370264
0.043887
0.0470112
-0.0158998
-0.0139916
-0.008634
-0.000965354
0.00819638
0.018121
0.0280471
0.0370535
0.0438851
0.046843
-0.0156714
-0.0138448
-0.00853916
-0.000911486
0.00821968
0.0181222
0.0280361
0.0370364
0.0438551
0.0467652
-0.0155329
-0.0137428
-0.00847292
-0.000875873
0.0082319
0.0181184
0.028021
0.0370139
0.0438241
0.0467199
-0.0154675
-0.0136919
-0.00843944
-0.000858276
0.00823687
0.0181142
0.0280107
0.0369997
0.0438064
0.0466983
-0.0154676
-0.013692
-0.00843949
-0.000858329
0.00823681
0.0181142
0.0280107
0.0369997
0.0438063
0.0466983
-0.0155331
-0.013743
-0.00847307
-0.00087603
0.00823174
0.0181183
0.0280209
0.0370139
0.0438241
0.0467198
-0.0156717
-0.013845
-0.00853939
-0.000911738
0.00821941
0.0181219
0.028036
0.0370363
0.043855
0.046765
-0.0159002
-0.013992
-0.00863432
-0.000965689
0.00819604
0.0181207
0.028047
0.0370535
0.043885
0.0468429
-0.0162949
-0.0141814
-0.00875729
-0.00104624
0.00814418
0.0180846
0.0280161
0.0370263
0.0438869
0.047011
-0.0281793
-0.0246772
-0.0169737
-0.00659886
0.00545624
0.0184435
0.0316639
0.044183
0.0544239
0.0600688
-0.0275725
-0.024366
-0.0167884
-0.00649491
0.00550674
0.0184599
0.031662
0.044182
0.0543989
0.0598954
-0.027235
-0.0241479
-0.0166611
-0.00643752
0.00551369
0.0184337
0.0316184
0.0441328
0.0543396
0.059804
-0.0270356
-0.0240035
-0.0165759
-0.00640202
0.00551165
0.0184056
0.031574
0.0440816
0.0542839
0.0597461
-0.0269433
-0.0239329
-0.0165336
-0.00638496
0.00550909
0.0183889
0.0315485
0.0440522
0.0542532
0.0597171
-0.0269433
-0.023933
-0.0165336
-0.006385
0.00550905
0.0183888
0.0315485
0.0440522
0.0542532
0.059717
-0.0270357
-0.0240036
-0.016576
-0.00640214
0.00551152
0.0184055
0.031574
0.0440816
0.0542839
0.059746
-0.0272351
-0.024148
-0.0166612
-0.00643772
0.00551348
0.0184336
0.0316183
0.0441328
0.0543395
0.0598039
-0.0275727
-0.0243662
-0.0167886
-0.00649521
0.00550646
0.0184598
0.031662
0.044182
0.0543987
0.0598952
-0.0281796
-0.0246775
-0.016974
-0.00659923
0.00545591
0.0184433
0.0316639
0.044183
0.0544238
0.0600686
-0.0464973
-0.0397846
-0.0283885
-0.0142186
0.00159552
0.0184584
0.0359742
0.0535196
0.0692885
0.0807435
-0.0455209
-0.0392959
-0.0281601
-0.0141445
0.0015769
0.01838
0.0358601
0.0534169
0.0691707
0.0806453
-0.0450133
-0.0389865
-0.0280124
-0.0141133
0.00153034
0.0182817
0.0357311
0.0532883
0.0690466
0.0805629
-0.0447275
-0.0387897
-0.0279141
-0.0140936
0.0014923
0.0182039
0.0356285
0.0531806
0.0689446
0.080498
-0.0445989
-0.0386955
-0.027865
-0.0140837
0.00147255
0.0181634
0.0355752
0.0531243
0.0688921
0.0804629
-0.044599
-0.0386956
-0.027865
-0.0140837
0.00147253
0.0181634
0.0355752
0.0531243
0.0688921
0.0804629
-0.0447276
-0.0387898
-0.0279141
-0.0140937
0.00149223
0.0182039
0.0356285
0.0531806
0.0689446
0.0804979
-0.0450134
-0.0389866
-0.0280126
-0.0141135
0.0015302
0.0182817
0.0357311
0.0532883
0.0690465
0.0805627
-0.045521
-0.039296
-0.0281603
-0.0141448
0.00157671
0.0183799
0.0358601
0.0534169
0.0691706
0.0806451
-0.0464975
-0.0397848
-0.0283888
-0.0142189
0.00159531
0.0184584
0.0359742
0.0535196
0.0692884
0.0807433
-0.0765739
-0.0610029
-0.043541
-0.0240847
-0.00362309
0.0177142
0.0402653
0.0643737
0.0883672
0.113423
-0.0753178
-0.0604236
-0.0434586
-0.0242375
-0.00389485
0.0173414
0.0397715
0.0638336
0.0876503
0.11325
-0.0746425
-0.0600396
-0.0433443
-0.0242998
-0.00406877
0.0170897
0.0394526
0.0635131
0.0873328
0.113168
-0.0742593
-0.0597882
-0.0432495
-0.024321
-0.00417504
0.0169268
0.0392462
0.0633014
0.0871361
0.113106
-0.0740888
-0.0596676
-0.0431981
-0.0243279
-0.00422352
0.0168494
0.0391486
0.0632017
0.0870475
0.11307
-0.0740889
-0.0596676
-0.0431982
-0.024328
-0.00422352
0.0168494
0.0391486
0.0632017
0.0870475
0.11307
-0.0742594
-0.0597883
-0.0432496
-0.0243211
-0.00417507
0.0169268
0.0392462
0.0633013
0.0871361
0.113106
-0.0746426
-0.0600397
-0.0433445
-0.0243
-0.00406883
0.0170897
0.0394526
0.0635131
0.0873327
0.113168
-0.0753179
-0.0604238
-0.0434588
-0.0242377
-0.00389493
0.0173415
0.0397715
0.0638335
0.0876501
0.11325
-0.0765741
-0.0610032
-0.0435413
-0.0240849
-0.00362315
0.0177142
0.0402652
0.0643736
0.088367
0.113422
-0.119854
-0.0874764
-0.0615963
-0.03544
-0.00984168
0.015848
0.0435434
0.075219
0.109241
0.167469
-0.116922
-0.0867399
-0.0620932
-0.0362146
-0.0106959
0.014807
0.042155
0.073478
0.106361
0.167548
-0.115777
-0.0862301
-0.0620762
-0.0364553
-0.0110901
0.0142727
0.0414952
0.0727736
0.105504
0.167603
-0.115188
-0.0858854
-0.0620006
-0.0365479
-0.0112965
0.0139734
0.0411335
0.0723979
0.105108
0.167602
-0.114943
-0.0857224
-0.0619468
-0.0365749
-0.0113819
0.013843
0.0409778
0.0722411
0.10496
0.167585
-0.114943
-0.0857224
-0.0619468
-0.0365749
-0.0113819
0.013843
0.0409778
0.0722411
0.10496
0.167585
-0.115188
-0.0858855
-0.0620006
-0.036548
-0.0112965
0.0139735
0.0411335
0.0723979
0.105108
0.167602
-0.115777
-0.0862302
-0.0620764
-0.0364554
-0.0110901
0.0142728
0.0414952
0.0727736
0.105504
0.167603
-0.116923
-0.08674
-0.0620934
-0.0362148
-0.0106959
0.0148071
0.042155
0.0734779
0.106361
0.167548
-0.119854
-0.0874767
-0.0615965
-0.0354401
-0.00984166
0.015848
0.0435433
0.0752189
0.109241
0.167469
-0.24806
-0.118986
-0.0752513
-0.0424852
-0.0129896
0.0160102
0.0488377
0.0935222
0.156452
0.315339
-0.245761
-0.115998
-0.0750013
-0.0431992
-0.0139343
0.0147874
0.0471694
0.092144
0.155517
0.320633
-0.244492
-0.1149
-0.0747988
-0.0434293
-0.0143801
0.0141733
0.0464108
0.0915379
0.155215
0.322012
-0.243826
-0.114354
-0.0746334
-0.0435158
-0.0146139
0.01384
0.0460142
0.0912068
0.155016
0.322487
-0.243545
-0.11413
-0.0745503
-0.0435408
-0.0147105
0.0136966
0.0458459
0.0910624
0.154921
0.322601
-0.243545
-0.11413
-0.0745503
-0.0435408
-0.0147105
0.0136966
0.0458459
0.0910624
0.154921
0.322601
-0.243826
-0.114354
-0.0746334
-0.0435158
-0.0146139
0.01384
0.0460142
0.0912068
0.155016
0.322486
-0.244492
-0.1149
-0.0747989
-0.0434293
-0.0143801
0.0141733
0.0464108
0.0915379
0.155215
0.322012
-0.245761
-0.115998
-0.0750014
-0.0431993
-0.0139343
0.0147874
0.0471694
0.0921439
0.155517
0.320633
-0.24806
-0.118986
-0.0752515
-0.0424853
-0.0129895
0.0160102
0.0488376
0.0935221
0.156451
0.315339
)
;

boundaryField
{
    top
    {
        type            zeroGradient;
    }
    others
    {
        type            zeroGradient;
    }
}


// ************************************************************************* //
