/*--------------------------------*- C++ -*----------------------------------*\
  =========                 |
  \\      /  F ield         | OpenFOAM: The Open Source CFD Toolbox
   \\    /   O peration     | Website:  https://openfoam.org
    \\  /    A nd           | Version:  9
     \\/     M anipulation  |
\*---------------------------------------------------------------------------*/
FoamFile
{
    format      ascii;
    class       surfaceScalarField;
    location    "0.03";
    object      phi;
}
// * * * * * * * * * * * * * * * * * * * * * * * * * * * * * * * * * * * * * //

dimensions      [0 3 -1 0 0 0 0];

internalField   nonuniform List<scalar> 
22800
(
4.60621e-06
-9.33173e-08
-4.51289e-06
7.83904e-06
-3.94176e-07
-2.83866e-06
9.60232e-06
-3.70164e-07
-1.39311e-06
1.05834e-05
-2.77321e-07
-7.03796e-07
1.11448e-05
-1.99224e-07
-3.62103e-07
1.14718e-05
-1.37981e-07
-1.89058e-07
1.1664e-05
-9.15157e-08
-1.00704e-07
1.17745e-05
-5.6953e-08
-5.34778e-08
1.18308e-05
-3.05087e-08
-2.57941e-08
1.18464e-05
-8.74868e-09
-6.92265e-09
1.18255e-05
1.10952e-08
9.83174e-09
1.1765e-05
3.17558e-08
2.87407e-08
1.16528e-05
5.58612e-08
5.6352e-08
1.14631e-05
8.64172e-08
1.03275e-07
1.1145e-05
1.26692e-07
1.91383e-07
1.05997e-05
1.78482e-07
3.6682e-07
9.63698e-06
2.3953e-07
7.2321e-07
7.87923e-06
3.02127e-07
1.45563e-06
4.62645e-06
2.90919e-07
2.96186e-06
-1.42707e-08
4.64072e-06
6.39679e-06
-1.98195e-07
-6.29191e-06
1.11439e-05
-4.75524e-07
-4.6658e-06
1.39173e-05
-4.93217e-07
-2.65035e-06
1.55659e-05
-4.12857e-07
-1.513e-06
1.65535e-05
-3.18699e-07
-8.6813e-07
1.71514e-05
-2.32379e-07
-5.03565e-07
1.75165e-05
-1.60001e-07
-2.96614e-07
1.7735e-05
-1.01525e-07
-1.7393e-07
1.78534e-05
-5.38908e-08
-9.49354e-08
1.78949e-05
-1.32827e-08
-3.69988e-08
1.78677e-05
2.39886e-08
1.42868e-08
1.77674e-05
6.14239e-08
7.05968e-08
1.75751e-05
1.02328e-07
1.45924e-07
1.72494e-05
1.49771e-07
2.62266e-07
1.67096e-05
2.05946e-07
4.60561e-07
1.57987e-05
2.69808e-07
8.19609e-07
1.42225e-05
3.32992e-07
1.4827e-06
1.14514e-05
3.74505e-07
2.69872e-06
6.57254e-06
3.25469e-07
4.84434e-06
6.74392e-08
6.49083e-06
6.70057e-06
-2.07871e-07
-6.69089e-06
1.18889e-05
-4.19993e-07
-5.24381e-06
1.5006e-05
-4.59575e-07
-3.1508e-06
1.68997e-05
-4.12393e-07
-1.89415e-06
1.80565e-05
-3.36096e-07
-1.13944e-06
1.87701e-05
-2.55531e-07
-6.90408e-07
1.92141e-05
-1.81387e-07
-4.22609e-07
1.94857e-05
-1.17006e-07
-2.56108e-07
1.96378e-05
-6.17128e-08
-1.4426e-07
1.96973e-05
-1.31238e-08
-5.97106e-08
1.9674e-05
3.16502e-08
1.56916e-08
1.9563e-05
7.54641e-08
9.69393e-08
1.93428e-05
1.20846e-07
2.01611e-07
1.89668e-05
1.69585e-07
3.56271e-07
1.83424e-05
2.21905e-07
6.084e-07
1.72917e-05
2.74538e-07
1.04596e-06
1.54855e-05
3.17744e-07
1.82143e-06
1.23493e-05
3.31955e-07
3.17879e-06
6.96032e-06
2.74929e-07
5.4395e-06
9.61721e-08
6.93159e-06
6.74572e-06
-1.74034e-07
-6.77956e-06
1.20762e-05
-3.32381e-07
-5.41807e-06
1.53268e-05
-3.75227e-07
-3.33493e-06
1.73226e-05
-3.52398e-07
-2.05586e-06
1.85533e-05
-2.99012e-07
-1.26779e-06
1.93192e-05
-2.34943e-07
-7.86486e-07
1.98002e-05
-1.70923e-07
-4.91472e-07
2.00979e-05
-1.11788e-07
-3.02897e-07
2.02679e-05
-5.86825e-08
-1.72962e-07
2.03384e-05
-1.07943e-08
-7.29105e-08
2.03198e-05
3.3519e-08
1.68099e-08
2.02067e-05
7.60291e-08
1.1247e-07
1.99763e-05
1.18184e-07
2.33058e-07
1.95787e-05
1.60579e-07
4.06637e-07
1.89159e-05
2.02249e-07
6.82462e-07
1.78006e-05
2.39455e-07
1.15034e-06
1.58913e-05
2.64141e-07
1.96294e-06
1.26035e-05
2.62745e-07
3.35703e-06
7.03638e-06
2.1266e-07
5.62937e-06
9.00086e-08
7.04254e-06
6.75112e-06
-1.32696e-07
-6.79246e-06
1.21325e-05
-2.49211e-07
-5.46454e-06
1.54409e-05
-2.87108e-07
-3.39651e-06
1.74847e-05
-2.77927e-07
-2.11829e-06
1.87513e-05
-2.42788e-07
-1.32278e-06
1.95428e-05
-1.95598e-07
-8.30901e-07
2.0042e-05
-1.45068e-07
-5.25053e-07
2.03526e-05
-9.59529e-08
-3.26474e-07
2.05317e-05
-5.02031e-08
-1.87574e-07
2.06084e-05
-8.05571e-09
-7.94011e-08
2.05928e-05
3.11113e-08
1.79791e-08
2.04795e-05
6.81354e-08
1.21207e-07
2.02444e-05
1.03616e-07
2.49713e-07
1.98356e-05
1.37436e-07
4.31917e-07
1.91522e-05
1.6826e-07
7.1736e-07
1.80029e-05
1.92885e-07
1.1959e-06
1.60421e-05
2.05624e-07
2.01935e-06
1.26858e-05
1.9812e-07
3.42091e-06
7.05134e-06
1.58501e-07
5.6886e-06
7.31866e-08
7.06816e-06
6.75183e-06
-9.57574e-08
-6.78877e-06
1.21545e-05
-1.7966e-07
-5.47222e-06
1.54906e-05
-2.09847e-07
-3.41332e-06
1.75591e-05
-2.07242e-07
-2.13925e-06
1.88448e-05
-1.84781e-07
-1.34364e-06
1.965e-05
-1.51627e-07
-8.49163e-07
2.01586e-05
-1.14116e-07
-5.39584e-07
2.04757e-05
-7.61633e-08
-3.36947e-07
2.06594e-05
-3.97797e-08
-1.94032e-07
2.0739e-05
-5.68423e-09
-8.20064e-08
2.07249e-05
2.61268e-08
1.90958e-08
2.06112e-05
5.58868e-08
1.2595e-07
2.0373e-05
8.36881e-08
2.58072e-07
1.99575e-05
1.09118e-07
4.43887e-07
1.92619e-05
1.30938e-07
7.32877e-07
1.80933e-05
1.46774e-07
1.21471e-06
1.61054e-05
1.52933e-07
2.04065e-06
1.27164e-05
1.44489e-07
3.44257e-06
7.05422e-06
1.14954e-07
5.70574e-06
5.53427e-08
7.07207e-06
6.75272e-06
-6.53645e-08
-6.78311e-06
1.21658e-05
-1.23213e-07
-5.46949e-06
1.55163e-05
-1.4528e-07
-3.41506e-06
1.75985e-05
-1.4536e-07
-2.14414e-06
1.8895e-05
-1.31419e-07
-1.34986e-06
1.97079e-05
-1.09249e-07
-8.55304e-07
2.02217e-05
-8.31071e-08
-5.44793e-07
2.05422e-05
-5.58562e-08
-3.40785e-07
2.07279e-05
-2.91651e-08
-1.9632e-07
2.08087e-05
-3.82678e-09
-8.26987e-08
2.0795e-05
1.98956e-08
1.9991e-08
2.06806e-05
4.19366e-08
1.28376e-07
2.04401e-05
6.21622e-08
2.61954e-07
2.002e-05
8.01241e-08
4.49092e-07
1.93169e-05
9.4869e-08
7.39184e-07
1.81371e-05
1.048e-07
1.22177e-06
1.61345e-05
1.07644e-07
2.04791e-06
1.27294e-05
1.00553e-07
3.44905e-06
7.0549e-06
7.98047e-08
5.70964e-06
3.92022e-08
7.07104e-06
6.75382e-06
-4.04932e-08
-6.77869e-06
1.21725e-05
-7.67508e-08
-5.46517e-06
1.5531e-05
-9.10657e-08
-3.41266e-06
1.76211e-05
-9.18603e-08
-2.1436e-06
1.89239e-05
-8.37949e-08
-1.35049e-06
1.97414e-05
-7.02599e-08
-8.56436e-07
2.02581e-05
-5.38401e-08
-5.45947e-07
2.05802e-05
-3.63694e-08
-3.41665e-07
2.07668e-05
-1.90024e-08
-1.96761e-07
2.0848e-05
-2.36539e-09
-8.26271e-08
2.0834e-05
1.32525e-08
2.06003e-08
2.07188e-05
2.7703e-08
1.295e-07
2.04766e-05
4.08114e-08
2.63539e-07
2.00535e-05
5.22303e-08
4.51037e-07
1.93456e-05
6.1334e-08
7.41336e-07
1.81594e-05
6.71587e-08
1.22393e-06
1.61488e-05
6.84096e-08
2.04982e-06
1.27355e-05
6.35116e-08
3.45034e-06
7.05521e-06
5.03596e-08
5.70971e-06
2.49772e-08
7.06943e-06
6.75474e-06
-1.93318e-08
-6.7759e-06
1.21766e-05
-3.67883e-08
-5.46183e-06
1.55394e-05
-4.38084e-08
-3.41005e-06
1.76338e-05
-4.43875e-08
-2.14192e-06
1.89403e-05
-4.06927e-08
-1.34955e-06
1.97603e-05
-3.42875e-08
-8.5597e-07
2.02786e-05
-2.6387e-08
-5.45718e-07
2.06016e-05
-1.78799e-08
-3.41512e-07
2.07885e-05
-9.34974e-09
-1.96586e-07
2.08697e-05
-1.13416e-09
-8.23749e-08
2.08554e-05
6.59148e-09
2.09532e-08
2.07394e-05
1.3724e-08
1.29949e-07
2.0496e-05
2.01533e-08
2.64058e-07
2.0071e-05
2.56942e-08
4.51575e-07
1.93604e-05
3.00403e-08
7.41823e-07
1.81706e-05
3.27412e-08
1.22428e-06
1.61558e-05
3.32103e-08
2.04995e-06
1.27384e-05
3.07421e-08
3.45014e-06
7.05542e-06
2.43688e-08
5.70902e-06
1.21383e-08
7.06826e-06
6.75524e-06
1.55867e-12
-6.77458e-06
1.21786e-05
1.36412e-12
-5.4601e-06
1.55433e-05
1.54751e-12
-3.40855e-06
1.76397e-05
1.5631e-12
-2.1408e-06
1.89478e-05
1.34057e-12
-1.34878e-06
1.97689e-05
9.98057e-13
-8.55447e-07
2.02879e-05
5.48517e-13
-5.4536e-07
2.06113e-05
1.42524e-13
-3.41253e-07
2.07983e-05
-2.94306e-13
-1.96383e-07
2.08794e-05
-7.40044e-13
-8.22023e-08
2.08649e-05
-1.13867e-12
2.1109e-08
2.07485e-05
-1.39765e-12
1.30089e-07
2.05045e-05
-1.54579e-12
2.64173e-07
2.00785e-05
-1.68686e-12
4.51647e-07
1.93668e-05
-1.76354e-12
7.41828e-07
1.81753e-05
-1.76361e-12
1.22419e-06
1.61588e-05
-1.69691e-12
2.04975e-06
1.27397e-05
-1.55955e-12
3.44982e-06
7.05554e-06
-1.24413e-12
5.70853e-06
-7.75521e-13
7.06768e-06
6.75524e-06
1.93348e-08
-6.77458e-06
1.21786e-05
3.67909e-08
-5.4601e-06
1.55433e-05
4.38115e-08
-3.40855e-06
1.76397e-05
4.43906e-08
-2.1408e-06
1.89478e-05
4.06953e-08
-1.34878e-06
1.97689e-05
3.42895e-08
-8.55447e-07
2.02879e-05
2.63882e-08
-5.4536e-07
2.06113e-05
1.78803e-08
-3.41253e-07
2.07983e-05
9.34921e-09
-1.96383e-07
2.08794e-05
1.13277e-09
-8.22025e-08
2.08649e-05
-6.59364e-09
2.11088e-08
2.07485e-05
-1.37267e-08
1.30089e-07
2.05045e-05
-2.01563e-08
2.64173e-07
2.00785e-05
-2.56975e-08
4.51647e-07
1.93668e-05
-3.00438e-08
7.41828e-07
1.81753e-05
-3.27447e-08
1.22419e-06
1.61588e-05
-3.32137e-08
2.04975e-06
1.27397e-05
-3.07452e-08
3.44982e-06
7.05554e-06
-2.43713e-08
5.70853e-06
-1.21398e-08
7.06768e-06
6.75474e-06
4.0496e-08
-6.7759e-06
1.21766e-05
7.67533e-08
-5.46183e-06
1.55394e-05
9.10685e-08
-3.41005e-06
1.76338e-05
9.18632e-08
-2.14192e-06
1.89403e-05
8.37975e-08
-1.34955e-06
1.97603e-05
7.02619e-08
-8.5597e-07
2.02786e-05
5.38413e-08
-5.45718e-07
2.06016e-05
3.63698e-08
-3.41512e-07
2.07885e-05
1.9002e-08
-1.96586e-07
2.08697e-05
2.36424e-09
-8.23754e-08
2.08554e-05
-1.32544e-08
2.09528e-08
2.07394e-05
-2.77054e-08
1.29949e-07
2.0496e-05
-4.08141e-08
2.64058e-07
2.0071e-05
-5.22334e-08
4.51574e-07
1.93604e-05
-6.13372e-08
7.41822e-07
1.81706e-05
-6.7162e-08
1.22428e-06
1.61558e-05
-6.84128e-08
2.04995e-06
1.27384e-05
-6.35145e-08
3.45014e-06
7.05542e-06
-5.03619e-08
5.70902e-06
-2.49786e-08
7.06826e-06
6.75382e-06
6.53675e-08
-6.77869e-06
1.21725e-05
1.23215e-07
-5.46517e-06
1.5531e-05
1.45282e-07
-3.41266e-06
1.76211e-05
1.45363e-07
-2.1436e-06
1.89239e-05
1.31422e-07
-1.35049e-06
1.97414e-05
1.09251e-07
-8.56435e-07
2.02581e-05
8.31083e-08
-5.45947e-07
2.05802e-05
5.58567e-08
-3.41665e-07
2.07668e-05
2.91649e-08
-1.96762e-07
2.0848e-05
3.82581e-09
-8.26277e-08
2.0834e-05
-1.98973e-08
2.05997e-08
2.07188e-05
-4.19388e-08
1.295e-07
2.04766e-05
-6.21647e-08
2.63538e-07
2.00535e-05
-8.01269e-08
4.51036e-07
1.93457e-05
-9.48719e-08
7.41336e-07
1.81594e-05
-1.04803e-07
1.22393e-06
1.61488e-05
-1.07647e-07
2.04982e-06
1.27355e-05
-1.00555e-07
3.45034e-06
7.05521e-06
-7.98067e-08
5.70971e-06
-3.92034e-08
7.06943e-06
6.75272e-06
9.57607e-08
-6.78311e-06
1.21658e-05
1.79662e-07
-5.46949e-06
1.55163e-05
2.0985e-07
-3.41506e-06
1.75985e-05
2.07244e-07
-2.14414e-06
1.8895e-05
1.84783e-07
-1.34986e-06
1.97079e-05
1.51629e-07
-8.55304e-07
2.02217e-05
1.14117e-07
-5.44793e-07
2.05422e-05
7.61639e-08
-3.40786e-07
2.07279e-05
3.97796e-08
-1.9632e-07
2.08087e-05
5.68352e-09
-8.26996e-08
2.0795e-05
-2.61281e-08
1.99902e-08
2.06806e-05
-5.58886e-08
1.28375e-07
2.04401e-05
-8.36901e-08
2.61953e-07
2.002e-05
-1.0912e-07
4.49091e-07
1.93169e-05
-1.3094e-07
7.39183e-07
1.81371e-05
-1.46777e-07
1.22177e-06
1.61345e-05
-1.52936e-07
2.04791e-06
1.27294e-05
-1.44492e-07
3.44905e-06
7.0549e-06
-1.14956e-07
5.70964e-06
-5.53436e-08
7.07104e-06
6.75183e-06
1.32699e-07
-6.78877e-06
1.21545e-05
2.49213e-07
-5.47222e-06
1.54906e-05
2.8711e-07
-3.41332e-06
1.75591e-05
2.77929e-07
-2.13925e-06
1.88448e-05
2.4279e-07
-1.34364e-06
1.965e-05
1.95599e-07
-8.49162e-07
2.01586e-05
1.45069e-07
-5.39584e-07
2.04757e-05
9.59535e-08
-3.36947e-07
2.06593e-05
5.02033e-08
-1.94033e-07
2.0739e-05
8.05539e-09
-8.20075e-08
2.07249e-05
-3.11122e-08
1.90948e-08
2.06112e-05
-6.81367e-08
1.25948e-07
2.0373e-05
-1.03617e-07
2.5807e-07
1.99575e-05
-1.37438e-07
4.43886e-07
1.92619e-05
-1.68262e-07
7.32876e-07
1.80933e-05
-1.92887e-07
1.21471e-06
1.61054e-05
-2.05626e-07
2.04065e-06
1.27164e-05
-1.98122e-07
3.44257e-06
7.05422e-06
-1.58502e-07
5.70574e-06
-7.31874e-08
7.07207e-06
6.75112e-06
1.74038e-07
-6.79246e-06
1.21325e-05
3.32382e-07
-5.46453e-06
1.54409e-05
3.75229e-07
-3.39651e-06
1.74847e-05
3.524e-07
-2.11829e-06
1.87512e-05
2.99014e-07
-1.32277e-06
1.95428e-05
2.34944e-07
-8.30901e-07
2.0042e-05
1.70924e-07
-5.25053e-07
2.03526e-05
1.11789e-07
-3.26474e-07
2.05317e-05
5.86829e-08
-1.87575e-07
2.06084e-05
1.07943e-08
-7.94025e-08
2.05928e-05
-3.35194e-08
1.79779e-08
2.04795e-05
-7.60297e-08
1.21205e-07
2.02444e-05
-1.18184e-07
2.49711e-07
1.98356e-05
-1.60581e-07
4.31915e-07
1.91522e-05
-2.0225e-07
7.17359e-07
1.80029e-05
-2.39456e-07
1.1959e-06
1.60421e-05
-2.64143e-07
2.01935e-06
1.26858e-05
-2.62746e-07
3.42091e-06
7.05134e-06
-2.1266e-07
5.6886e-06
-9.00091e-08
7.06816e-06
6.74572e-06
2.07876e-07
-6.77956e-06
1.20762e-05
4.19993e-07
-5.41807e-06
1.53268e-05
4.59576e-07
-3.33493e-06
1.73226e-05
4.12394e-07
-2.05586e-06
1.85533e-05
3.36097e-07
-1.26779e-06
1.93192e-05
2.55532e-07
-7.86485e-07
1.98002e-05
1.81388e-07
-4.91472e-07
2.00979e-05
1.17006e-07
-3.02898e-07
2.02678e-05
6.17134e-08
-1.72963e-07
2.03384e-05
1.31243e-08
-7.29117e-08
2.03198e-05
-3.16501e-08
1.68087e-08
2.02067e-05
-7.54643e-08
1.12469e-07
1.99763e-05
-1.20846e-07
2.33056e-07
1.95787e-05
-1.69586e-07
4.06636e-07
1.89159e-05
-2.21905e-07
6.82461e-07
1.78006e-05
-2.74539e-07
1.15034e-06
1.58913e-05
-3.17745e-07
1.96294e-06
1.26035e-05
-3.31956e-07
3.35703e-06
7.03638e-06
-2.7493e-07
5.62937e-06
-9.61722e-08
7.04254e-06
6.70057e-06
1.98203e-07
-6.6909e-06
1.18888e-05
4.75521e-07
-5.24381e-06
1.5006e-05
4.93217e-07
-3.1508e-06
1.68997e-05
4.12857e-07
-1.89415e-06
1.80565e-05
3.18699e-07
-1.13944e-06
1.87701e-05
2.32379e-07
-6.90407e-07
1.92141e-05
1.60001e-07
-4.22609e-07
1.94857e-05
1.01526e-07
-2.56108e-07
1.96378e-05
5.38913e-08
-1.44261e-07
1.96973e-05
1.32832e-08
-5.97117e-08
1.9674e-05
-2.39883e-08
1.56907e-08
1.9563e-05
-6.14237e-08
9.69381e-08
1.93428e-05
-1.02328e-07
2.0161e-07
1.89668e-05
-1.49771e-07
3.5627e-07
1.83424e-05
-2.05946e-07
6.08399e-07
1.72917e-05
-2.69808e-07
1.04596e-06
1.54855e-05
-3.32992e-07
1.82143e-06
1.23493e-05
-3.74505e-07
3.17879e-06
6.96032e-06
-3.2547e-07
5.4395e-06
-6.74392e-08
6.93159e-06
6.39679e-06
9.33164e-08
-6.29191e-06
1.11439e-05
3.9417e-07
-4.6658e-06
1.39173e-05
3.70165e-07
-2.65035e-06
1.55659e-05
2.77321e-07
-1.513e-06
1.65535e-05
1.99224e-07
-8.68128e-07
1.71514e-05
1.37981e-07
-5.03564e-07
1.75165e-05
9.1516e-08
-2.96613e-07
1.7735e-05
5.69533e-08
-1.7393e-07
1.78534e-05
3.05091e-08
-9.49361e-08
1.78949e-05
8.74913e-09
-3.69996e-08
1.78677e-05
-1.10951e-08
1.42863e-08
1.77674e-05
-3.17557e-08
7.05961e-08
1.75751e-05
-5.58609e-08
1.45923e-07
1.72494e-05
-8.64169e-08
2.62265e-07
1.67096e-05
-1.26692e-07
4.6056e-07
1.57987e-05
-1.78482e-07
8.19609e-07
1.42225e-05
-2.3953e-07
1.4827e-06
1.14514e-05
-3.02127e-07
2.69872e-06
6.57254e-06
-2.90919e-07
4.84434e-06
1.42702e-08
6.49083e-06
4.60621e-06
-4.51289e-06
7.83903e-06
-2.83865e-06
9.60232e-06
-1.39312e-06
1.05834e-05
-7.03796e-07
1.11448e-05
-3.62103e-07
1.14718e-05
-1.89058e-07
1.1664e-05
-1.00704e-07
1.17744e-05
-5.3478e-08
1.18308e-05
-2.57944e-08
1.18464e-05
-6.92312e-09
1.18255e-05
9.83174e-09
1.1765e-05
2.87406e-08
1.16528e-05
5.63515e-08
1.14631e-05
1.03274e-07
1.1145e-05
1.91382e-07
1.05997e-05
3.6682e-07
9.63698e-06
7.23211e-07
7.87923e-06
1.45563e-06
4.62645e-06
2.96186e-06
4.64072e-06
-7.59181e-07
-1.3564e-07
-3.61807e-06
1.71964e-07
-3.65284e-07
-3.40452e-06
1.39161e-06
-3.30569e-07
-2.28219e-06
2.37297e-06
-2.51777e-07
-1.43338e-06
3.07834e-06
-1.84999e-07
-8.82471e-07
3.56101e-06
-1.29825e-07
-5.41899e-07
3.87877e-06
-8.54861e-08
-3.32979e-07
4.07644e-06
-5.03593e-08
-2.00789e-07
4.18359e-06
-2.17914e-08
-1.11151e-07
4.21661e-06
2.87195e-09
-4.28207e-08
4.1812e-06
2.60459e-08
1.91966e-08
4.07226e-06
4.97645e-08
8.79184e-08
3.87389e-06
7.60765e-08
1.78641e-07
3.55652e-06
1.06854e-07
3.13794e-07
3.07416e-06
1.43475e-07
5.30272e-07
2.3663e-06
1.85309e-07
8.89365e-07
1.37891e-06
2.28908e-07
1.4817e-06
1.56356e-07
2.72701e-07
2.40548e-06
-7.70401e-07
2.70636e-07
3.61798e-06
2.15433e-08
3.84877e-06
-5.2942e-07
-2.3942e-07
-5.65871e-06
1.13316e-06
-5.50316e-07
-6.14334e-06
3.30364e-06
-5.68243e-07
-4.58316e-06
5.15005e-06
-4.84917e-07
-3.12626e-06
6.53777e-06
-3.81094e-07
-2.05976e-06
7.52475e-06
-2.80194e-07
-1.34018e-06
8.19855e-06
-1.91121e-07
-8.64776e-07
8.63364e-06
-1.15583e-07
-5.43793e-07
8.88237e-06
-5.13728e-08
-3.14086e-07
8.97548e-06
5.10647e-09
-1.32343e-07
8.92414e-06
5.76515e-08
3.40202e-08
8.72041e-06
1.09806e-07
2.14281e-07
8.33609e-06
1.64592e-07
4.41737e-07
7.71883e-06
2.24071e-07
7.62301e-07
6.78887e-06
2.88303e-07
1.2457e-06
5.44416e-06
3.52939e-07
1.99668e-06
3.60413e-06
4.06519e-07
3.14512e-06
1.38991e-06
4.28843e-07
4.7568e-06
-3.5625e-07
3.58909e-07
6.50222e-06
9.06693e-08
6.06546e-06
-3.70435e-07
-2.73435e-07
-6.28644e-06
1.6111e-06
-5.72142e-07
-7.20353e-06
4.17808e-06
-6.3494e-07
-5.65108e-06
6.40037e-06
-5.78466e-07
-4.02289e-06
8.10561e-06
-4.76832e-07
-2.74895e-06
9.34383e-06
-3.63789e-07
-1.84503e-06
1.02069e-05
-2.55483e-07
-1.22134e-06
1.07772e-05
-1.58071e-07
-7.8389e-07
1.11143e-05
-7.19312e-08
-4.60851e-07
1.12542e-05
5.31774e-09
-1.99788e-07
1.12101e-05
7.70253e-08
4.04072e-08
1.09729e-05
1.46523e-07
2.97445e-07
1.05091e-05
2.16358e-07
6.13598e-07
9.75685e-06
2.87506e-07
1.04514e-06
8.62181e-06
3.58074e-07
1.67366e-06
6.98495e-06
4.21106e-07
2.61466e-06
4.75522e-06
4.6215e-07
3.99553e-06
2.07392e-06
4.57622e-07
5.83132e-06
-1.28063e-07
3.62162e-07
7.63823e-06
1.23406e-07
6.77079e-06
-3.20886e-07
-2.51126e-07
-6.48098e-06
1.81414e-06
-5.15233e-07
-7.61e-06
4.55935e-06
-5.93255e-07
-6.12182e-06
6.95205e-06
-5.63385e-07
-4.46364e-06
8.8064e-06
-4.80977e-07
-3.11801e-06
1.01678e-05
-3.77841e-07
-2.13378e-06
1.11281e-05
-2.7181e-07
-1.43551e-06
1.17718e-05
-1.71514e-07
-9.33127e-07
1.21607e-05
-7.96952e-08
-5.54068e-07
1.23321e-05
4.18164e-09
-2.43181e-07
1.22997e-05
8.21088e-08
4.406e-08
1.20533e-05
1.56318e-07
3.49077e-07
1.15565e-05
2.28281e-07
7.17989e-07
1.07419e-05
2.97797e-07
1.21091e-06
9.50799e-06
3.61831e-07
1.91262e-06
7.72734e-06
4.12983e-07
2.93911e-06
5.30488e-06
4.3808e-07
4.40947e-06
2.3931e-06
4.17812e-07
6.30861e-06
-2.7778e-08
3.23127e-07
8.08928e-06
1.2653e-07
7.01164e-06
-2.98497e-07
-2.07007e-07
-6.53808e-06
1.90609e-06
-4.24869e-07
-7.75949e-06
4.73643e-06
-5.01018e-07
-6.31909e-06
7.21149e-06
-4.89256e-07
-4.66748e-06
9.13863e-06
-4.28614e-07
-3.30227e-06
1.0561e-05
-3.44464e-07
-2.28663e-06
1.15706e-05
-2.52674e-07
-1.55385e-06
1.22528e-05
-1.62111e-07
-1.01803e-06
1.26702e-05
-7.67301e-08
-6.07935e-07
1.28606e-05
2.56791e-09
-2.68176e-07
1.28375e-05
7.64267e-08
4.67773e-08
1.25894e-05
1.45892e-07
3.79686e-07
1.2078e-05
2.11429e-07
7.78026e-07
1.12326e-05
2.72092e-07
1.303e-06
9.94746e-06
3.24632e-07
2.03968e-06
8.09128e-06
3.62587e-07
3.10248e-06
5.56842e-06
3.75697e-07
4.60459e-06
2.53992e-06
3.50164e-07
6.51706e-06
1.43839e-08
2.68021e-07
8.26924e-06
1.12335e-07
7.09674e-06
-2.86364e-07
-1.58547e-07
-6.55087e-06
1.95355e-06
-3.27801e-07
-7.8092e-06
4.8281e-06
-3.92953e-07
-6.39594e-06
7.34626e-06
-3.91181e-07
-4.75548e-06
9.31117e-06
-3.49205e-07
-3.38795e-06
1.07648e-05
-2.85555e-07
-2.36171e-06
1.17996e-05
-2.12705e-07
-1.61432e-06
1.25014e-05
-1.38347e-07
-1.06254e-06
1.29336e-05
-6.65447e-08
-6.36467e-07
1.31343e-05
1.08308e-09
-2.81174e-07
1.31166e-05
6.42746e-08
4.89615e-08
1.28682e-05
1.2321e-07
3.97029e-07
1.23492e-05
1.77704e-07
8.10824e-07
1.14869e-05
2.26531e-07
1.35167e-06
1.01734e-05
2.66822e-07
2.10425e-06
8.27547e-06
2.93564e-07
3.18164e-06
5.69841e-06
2.99432e-07
4.69397e-06
2.60946e-06
2.75179e-07
6.60651e-06
3.29859e-08
2.09585e-07
8.34065e-06
9.0849e-08
7.12654e-06
-2.7858e-07
-1.12946e-07
-6.55013e-06
1.98122e-06
-2.3556e-07
-7.82153e-06
4.8807e-06
-2.85638e-07
-6.42185e-06
7.42319e-06
-2.8814e-07
-4.78967e-06
9.40905e-06
-2.60678e-07
-3.42425e-06
1.08795e-05
-2.1589e-07
-2.39544e-06
1.19273e-05
-1.62693e-07
-1.64259e-06
1.2639e-05
-1.06963e-07
-1.08386e-06
1.30785e-05
-5.21456e-08
-6.5024e-07
1.32841e-05
6.26223e-11
-2.87247e-07
1.32688e-05
4.90026e-08
5.05725e-08
1.30197e-05
9.44051e-08
4.06286e-07
1.24959e-05
1.35802e-07
8.27667e-07
1.16235e-05
1.72045e-07
1.3759e-06
1.02933e-05
2.00914e-07
2.13532e-06
8.37157e-06
2.18859e-07
3.21821e-06
5.76461e-06
2.2099e-07
4.73331e-06
2.64376e-06
2.01374e-07
6.6437e-06
4.18268e-08
1.52977e-07
8.36818e-06
6.74281e-08
7.13628e-06
-2.73312e-07
-7.19839e-08
-6.54634e-06
1.99841e-06
-1.51244e-07
-7.82121e-06
4.91262e-06
-1.84824e-07
-6.42768e-06
7.46945e-06
-1.88054e-07
-4.80052e-06
9.46744e-06
-1.7166e-07
-3.43749e-06
1.09473e-05
-1.43409e-07
-2.40878e-06
1.2002e-05
-1.08955e-07
-1.65434e-06
1.27185e-05
-7.21944e-08
-1.09298e-06
1.31613e-05
-3.55588e-08
-6.56176e-07
1.33689e-05
-3.84411e-10
-2.89741e-07
1.33542e-05
3.26764e-08
5.1605e-08
1.3104e-05
6.3253e-08
4.10835e-07
1.25769e-05
9.08829e-08
8.35633e-07
1.16982e-05
1.14709e-07
1.38705e-06
1.0358e-05
1.33248e-07
2.14918e-06
8.42257e-06
1.44262e-07
3.23396e-06
5.79904e-06
1.44783e-07
4.74955e-06
2.66123e-06
1.31285e-07
6.65825e-06
4.62896e-08
9.95907e-08
8.37804e-06
4.42583e-08
7.13889e-06
-2.69976e-07
-3.49262e-08
-6.54298e-06
2.00873e-06
-7.37369e-08
-7.81804e-06
4.93142e-06
-9.05193e-08
-6.42704e-06
7.49645e-06
-9.25444e-08
-4.80247e-06
9.50129e-06
-8.49155e-08
-3.44114e-06
1.09863e-05
-7.13021e-08
-2.41309e-06
1.20445e-05
-5.44345e-08
-1.65846e-06
1.27634e-05
-3.62405e-08
-1.09632e-06
1.32076e-05
-1.79664e-08
-6.58371e-07
1.34157e-05
-3.35189e-10
-2.90599e-07
1.34009e-05
1.62659e-08
5.21663e-08
1.31497e-05
3.15958e-08
4.12826e-07
1.26203e-05
4.53803e-08
8.38991e-07
1.17378e-05
5.71669e-08
1.39163e-06
1.03919e-05
6.62181e-08
2.15472e-06
8.44893e-06
7.14569e-08
3.24006e-06
5.81659e-06
7.14852e-08
4.75558e-06
2.67003e-06
6.46573e-08
6.66333e-06
4.85526e-08
4.90126e-08
8.38108e-06
2.18626e-08
7.13921e-06
-2.6835e-07
1.28672e-12
-6.54115e-06
2.01363e-06
1.39729e-12
-7.81582e-06
4.94025e-06
1.95166e-12
-6.42569e-06
7.50904e-06
2.06081e-12
-4.80214e-06
9.51701e-06
1.73089e-12
-3.44166e-06
1.10043e-05
1.16592e-12
-2.41407e-06
1.20641e-05
4.53907e-13
-1.65955e-06
1.27839e-05
-3.12347e-13
-1.09727e-06
1.32285e-05
-1.17128e-12
-6.59005e-07
1.34368e-05
-2.06952e-12
-2.90823e-07
1.34218e-05
-2.79802e-12
5.23992e-08
1.31699e-05
-3.25511e-12
4.13526e-07
1.26394e-05
-3.53949e-12
8.40134e-07
1.1755e-05
-3.79777e-12
1.39316e-06
1.04065e-05
-3.92112e-12
2.15653e-06
8.46022e-06
-3.89772e-12
3.24198e-06
5.82405e-06
-3.70179e-12
4.75741e-06
2.67375e-06
-3.28985e-12
6.66477e-06
4.95182e-08
-2.44798e-12
8.38177e-06
-1.25913e-12
7.13906e-06
-2.6835e-07
3.49287e-08
-6.54115e-06
2.01363e-06
7.37396e-08
-7.81581e-06
4.94025e-06
9.05231e-08
-6.42569e-06
7.50904e-06
9.25484e-08
-4.80214e-06
9.51701e-06
8.49189e-08
-3.44166e-06
1.10043e-05
7.13044e-08
-2.41407e-06
1.20641e-05
5.44354e-08
-1.65955e-06
1.27839e-05
3.62399e-08
-1.09727e-06
1.32285e-05
1.79642e-08
-6.59006e-07
1.34368e-05
3.31229e-10
-2.90823e-07
1.34218e-05
-1.62713e-08
5.23987e-08
1.31699e-05
-3.16022e-08
4.13526e-07
1.26394e-05
-4.53872e-08
8.40134e-07
1.1755e-05
-5.71744e-08
1.39316e-06
1.04065e-05
-6.62258e-08
2.15653e-06
8.46022e-06
-7.14645e-08
3.24198e-06
5.82405e-06
-7.14925e-08
4.75741e-06
2.67375e-06
-6.46638e-08
6.66477e-06
4.95183e-08
-4.90174e-08
8.38177e-06
-2.18651e-08
7.13906e-06
-2.69975e-07
7.19861e-08
-6.54298e-06
2.00873e-06
1.51246e-07
-7.81804e-06
4.93141e-06
1.84828e-07
-6.42704e-06
7.49645e-06
1.88058e-07
-4.80247e-06
9.50129e-06
1.71663e-07
-3.44114e-06
1.09863e-05
1.43411e-07
-2.41309e-06
1.20445e-05
1.08956e-07
-1.65846e-06
1.27634e-05
7.2194e-08
-1.09632e-06
1.32076e-05
3.55569e-08
-6.58372e-07
1.34157e-05
3.80913e-10
-2.906e-07
1.34009e-05
-3.26813e-08
5.21649e-08
1.31497e-05
-6.32588e-08
4.12824e-07
1.26203e-05
-9.08893e-08
8.38989e-07
1.17378e-05
-1.14716e-07
1.39163e-06
1.03919e-05
-1.33256e-07
2.15472e-06
8.44893e-06
-1.44269e-07
3.24006e-06
5.8166e-06
-1.4479e-07
4.75558e-06
2.67003e-06
-1.31291e-07
6.66333e-06
4.85528e-08
-9.95952e-08
8.38108e-06
-4.42606e-08
7.13921e-06
-2.73312e-07
1.12948e-07
-6.54634e-06
1.99841e-06
2.35561e-07
-7.82121e-06
4.91261e-06
2.8564e-07
-6.42768e-06
7.46945e-06
2.88143e-07
-4.80052e-06
9.46744e-06
2.60681e-07
-3.43749e-06
1.09473e-05
2.15892e-07
-2.40878e-06
1.2002e-05
1.62694e-07
-1.65434e-06
1.27185e-05
1.06963e-07
-1.09298e-06
1.31613e-05
5.21441e-08
-6.56178e-07
1.33689e-05
-6.54512e-11
-2.89743e-07
1.33542e-05
-4.90067e-08
5.16028e-08
1.3104e-05
-9.44101e-08
4.10833e-07
1.25769e-05
-1.35807e-07
8.35631e-07
1.16982e-05
-1.72051e-07
1.38705e-06
1.0358e-05
-2.0092e-07
2.14918e-06
8.42257e-06
-2.18865e-07
3.23396e-06
5.79905e-06
-2.20997e-07
4.74955e-06
2.66123e-06
-2.01379e-07
6.65825e-06
4.62899e-08
-1.52981e-07
8.37804e-06
-6.74302e-08
7.13889e-06
-2.7858e-07
1.58549e-07
-6.55013e-06
1.98122e-06
3.27802e-07
-7.82153e-06
4.8807e-06
3.92954e-07
-6.42185e-06
7.42319e-06
3.91183e-07
-4.78967e-06
9.40905e-06
3.49208e-07
-3.42425e-06
1.08795e-05
2.85557e-07
-2.39543e-06
1.19273e-05
2.12706e-07
-1.64259e-06
1.2639e-05
1.38347e-07
-1.08386e-06
1.30785e-05
6.65438e-08
-6.50242e-07
1.32841e-05
-1.08506e-09
-2.8725e-07
1.32688e-05
-6.42777e-08
5.05695e-08
1.30197e-05
-1.23214e-07
4.06283e-07
1.24959e-05
-1.77708e-07
8.27664e-07
1.16235e-05
-2.26536e-07
1.3759e-06
1.02933e-05
-2.66828e-07
2.13531e-06
8.37157e-06
-2.93569e-07
3.21821e-06
5.76461e-06
-2.99437e-07
4.73331e-06
2.64376e-06
-2.75184e-07
6.6437e-06
4.18273e-08
-2.09589e-07
8.36818e-06
-9.08507e-08
7.13628e-06
-2.86365e-07
2.07008e-07
-6.55087e-06
1.95355e-06
4.24869e-07
-7.8092e-06
4.8281e-06
5.01018e-07
-6.39594e-06
7.34626e-06
4.89257e-07
-4.75548e-06
9.31116e-06
4.28616e-07
-3.38795e-06
1.07648e-05
3.44466e-07
-2.36171e-06
1.17996e-05
2.52675e-07
-1.61432e-06
1.25014e-05
1.62112e-07
-1.06254e-06
1.29336e-05
7.67298e-08
-6.3647e-07
1.31343e-05
-2.56907e-09
-2.81178e-07
1.31166e-05
-7.64288e-08
4.89577e-08
1.28682e-05
-1.45894e-07
3.97025e-07
1.23492e-05
-2.11433e-07
8.1082e-07
1.14869e-05
-2.72096e-07
1.35166e-06
1.01734e-05
-3.24636e-07
2.10425e-06
8.27547e-06
-3.62592e-07
3.18164e-06
5.69842e-06
-3.75701e-07
4.69397e-06
2.60946e-06
-3.50168e-07
6.60651e-06
3.29865e-08
-2.68023e-07
8.34065e-06
-1.12337e-07
7.12654e-06
-2.98497e-07
2.51128e-07
-6.53808e-06
1.90609e-06
5.15231e-07
-7.75949e-06
4.73643e-06
5.93255e-07
-6.31908e-06
7.21149e-06
5.63385e-07
-4.66748e-06
9.13862e-06
4.80978e-07
-3.30227e-06
1.0561e-05
3.77842e-07
-2.28663e-06
1.15706e-05
2.71811e-07
-1.55385e-06
1.22528e-05
1.71514e-07
-1.01804e-06
1.26702e-05
7.96955e-08
-6.07937e-07
1.28606e-05
-4.18192e-09
-2.6818e-07
1.28375e-05
-8.21099e-08
4.6773e-08
1.25894e-05
-1.5632e-07
3.79682e-07
1.2078e-05
-2.28283e-07
7.78021e-07
1.12326e-05
-2.978e-07
1.30299e-06
9.94746e-06
-3.61834e-07
2.03968e-06
8.09129e-06
-4.12986e-07
3.10247e-06
5.56843e-06
-4.38084e-07
4.60459e-06
2.53992e-06
-4.17815e-07
6.51706e-06
1.43847e-08
-3.23129e-07
8.26924e-06
-1.26531e-07
7.09674e-06
-3.20886e-07
2.73436e-07
-6.48098e-06
1.81414e-06
5.72138e-07
-7.61e-06
4.55934e-06
6.34938e-07
-6.12182e-06
6.95204e-06
5.78465e-07
-4.46364e-06
8.8064e-06
4.76832e-07
-3.118e-06
1.01677e-05
3.6379e-07
-2.13378e-06
1.11281e-05
2.55483e-07
-1.43551e-06
1.17718e-05
1.58072e-07
-9.33128e-07
1.21606e-05
7.19318e-08
-5.5407e-07
1.23321e-05
-5.31758e-09
-2.43185e-07
1.22997e-05
-7.70256e-08
4.40558e-08
1.20533e-05
-1.46523e-07
3.49073e-07
1.15565e-05
-2.16359e-07
7.17984e-07
1.07419e-05
-2.87507e-07
1.2109e-06
9.508e-06
-3.58075e-07
1.91262e-06
7.72735e-06
-4.21108e-07
2.93911e-06
5.30488e-06
-4.62152e-07
4.40947e-06
2.39311e-06
-4.57624e-07
6.30861e-06
-2.77772e-08
-3.62163e-07
8.08928e-06
-1.23407e-07
7.01164e-06
-3.70435e-07
2.3942e-07
-6.28644e-06
1.6111e-06
5.50311e-07
-7.20352e-06
4.17808e-06
5.68241e-07
-5.65107e-06
6.40036e-06
4.84916e-07
-4.02288e-06
8.10561e-06
3.81093e-07
-2.74895e-06
9.34382e-06
2.80194e-07
-1.84503e-06
1.02069e-05
1.91122e-07
-1.22134e-06
1.07772e-05
1.15583e-07
-7.83891e-07
1.11143e-05
5.13735e-08
-4.60853e-07
1.12542e-05
-5.10594e-09
-1.99791e-07
1.12101e-05
-5.76516e-08
4.04036e-08
1.09729e-05
-1.09806e-07
2.97441e-07
1.05091e-05
-1.64592e-07
6.13593e-07
9.75685e-06
-2.24071e-07
1.04513e-06
8.62182e-06
-2.88303e-07
1.67366e-06
6.98495e-06
-3.5294e-07
2.61465e-06
4.75522e-06
-4.0652e-07
3.99553e-06
2.07392e-06
-4.28844e-07
5.83132e-06
-1.28062e-07
-3.58909e-07
7.63823e-06
-9.06691e-08
6.77079e-06
-5.29414e-07
1.35637e-07
-5.65871e-06
1.13316e-06
3.65279e-07
-6.14334e-06
3.30364e-06
3.30567e-07
-4.58316e-06
5.15004e-06
2.51776e-07
-3.12625e-06
6.53776e-06
1.84998e-07
-2.05975e-06
7.52474e-06
1.29825e-07
-1.34018e-06
8.19854e-06
8.54863e-08
-8.64775e-07
8.63363e-06
5.03597e-08
-5.43793e-07
8.88236e-06
2.17919e-08
-3.14087e-07
8.97547e-06
-2.87167e-09
-1.32345e-07
8.92413e-06
-2.60459e-08
3.4018e-08
8.72041e-06
-4.97645e-08
2.14279e-07
8.33608e-06
-7.60762e-08
4.41733e-07
7.71883e-06
-1.06854e-07
7.62297e-07
6.78887e-06
-1.43475e-07
1.2457e-06
5.44416e-06
-1.85309e-07
1.99668e-06
3.60413e-06
-2.28908e-07
3.14512e-06
1.38991e-06
-2.72702e-07
4.7568e-06
-3.56249e-07
-2.70636e-07
6.50222e-06
-2.15435e-08
6.06546e-06
-7.59176e-07
-3.61808e-06
1.71966e-07
-3.40452e-06
1.39161e-06
-2.28219e-06
2.37297e-06
-1.43338e-06
3.07834e-06
-8.82471e-07
3.561e-06
-5.41899e-07
3.87876e-06
-3.32979e-07
4.07643e-06
-2.0079e-07
4.18358e-06
-1.11151e-07
4.21661e-06
-4.28215e-08
4.1812e-06
1.91958e-08
4.07226e-06
8.79175e-08
3.87389e-06
1.7864e-07
3.55652e-06
3.13793e-07
3.07416e-06
5.30272e-07
2.3663e-06
8.89365e-07
1.37891e-06
1.4817e-06
1.56356e-07
2.40548e-06
-7.70401e-07
3.61798e-06
3.84877e-06
-9.84782e-07
-1.47212e-07
-2.48608e-06
-1.09623e-06
-2.46979e-07
-3.04609e-06
-6.76057e-07
-2.28569e-07
-2.4738e-06
-1.29141e-07
-1.80579e-07
-1.79972e-06
3.71117e-07
-1.32809e-07
-1.24992e-06
7.69134e-07
-9.10851e-08
-8.48831e-07
1.05906e-06
-5.65726e-08
-5.66331e-07
1.25203e-06
-2.83842e-08
-3.6538e-07
1.3607e-06
-4.89809e-09
-2.14914e-07
1.39394e-06
1.60657e-08
-9.2133e-08
1.35456e-06
3.58495e-08
2.27289e-08
1.23877e-06
5.59769e-08
1.4773e-07
1.03663e-06
7.76194e-08
3.03161e-07
7.33785e-07
1.01621e-07
5.15022e-07
3.17452e-07
1.28187e-07
8.18418e-07
-2.06626e-07
1.55922e-07
1.25752e-06
-7.76701e-07
1.81042e-07
1.87073e-06
-1.2029e-06
1.98735e-07
2.63294e-06
-1.06166e-06
1.90711e-07
3.28603e-06
8.84218e-08
2.69869e-06
-1.39046e-06
-2.35079e-07
-4.18039e-06
-1.4828e-06
-4.42348e-07
-5.85564e-06
-6.57411e-07
-4.60234e-07
-5.17688e-06
4.41135e-07
-3.9899e-07
-4.00639e-06
1.48223e-06
-3.14002e-07