/*--------------------------------*- C++ -*----------------------------------*\
  =========                 |
  \\      /  F ield         | OpenFOAM: The Open Source CFD Toolbox
   \\    /   O peration     | Website:  https://openfoam.org
    \\  /    A nd           | Version:  9
     \\/     M anipulation  |
\*---------------------------------------------------------------------------*/
FoamFile
{
    format      ascii;
    class       surfaceScalarField;
    location    "0.03";
    object      phi;
}
// * * * * * * * * * * * * * * * * * * * * * * * * * * * * * * * * * * * * * //

dimensions      [0 3 -1 0 0 0 0];

internalField   nonuniform List<scalar> 
2700
(
-2.54798e-07
-1.78715e-09
2.56586e-07
-5.5965e-07
2.96511e-09
3.01886e-07
-8.08685e-07
3.48599e-09
2.4555e-07
-9.7069e-07
2.29763e-09
1.59707e-07
-1.03095e-06
3.55598e-10
5.99061e-08
-9.83149e-07
-1.9102e-09
-4.58926e-08
-8.28757e-07
-4.14948e-09
-1.50243e-07
-5.79188e-07
-5.81211e-09
-2.43757e-07
-2.65724e-07
-5.66176e-09
-3.07802e-07
-6.31734e-10
-2.65093e-07
-3.23476e-07
-2.48199e-09
3.24171e-07
-7.09912e-07
3.53716e-10
3.89047e-07
-1.02406e-06
9.86637e-10
3.16649e-07
-1.22754e-06
6.42515e-10
2.05136e-07
-1.3025e-06
-2.90814e-10
7.56045e-08
-1.24143e-06
-1.49599e-09
-6.14863e-08
-1.04642e-06
-2.64531e-09
-1.96517e-07
-7.31576e-07
-3.37447e-09
-3.17277e-07
-3.35529e-07
-2.97878e-09
-3.9873e-07
-2.09598e-10
-3.35951e-07
-3.29026e-07
-2.08973e-09
3.28633e-07
-7.23744e-07
-1.05767e-09
3.9613e-07
-1.04483e-06
-4.36328e-10
3.22513e-07
-1.25272e-06
-3.12202e-10
2.08845e-07
-1.32928e-06
-5.30943e-10
7.6793e-08
-1.26689e-06
-8.9885e-10
-6.29827e-08
-1.06762e-06
-1.26133e-09
-2.00658e-07
-7.45806e-07
-1.40004e-09
-3.23787e-07
-3.41092e-07
-1.03744e-09
-4.06655e-07
5.57837e-11
-3.41358e-07
-3.28656e-07
-1.17376e-09
3.2774e-07
-7.24288e-07
-8.47279e-10
3.95422e-07
-1.04623e-06
-5.16757e-10
3.22022e-07
-1.25472e-06
-3.62484e-10
2.0854e-07
-1.33155e-06
-3.54373e-10
7.66529e-08
-1.26905e-06
-4.17702e-10
-6.2981e-08
-1.06926e-06
-4.86317e-10
-2.0056e-07
-7.4656e-07
-4.70363e-10
-3.23634e-07
-3.4088e-07
-2.82034e-10
-4.06435e-07
9.07692e-11
-3.40915e-07
-3.28337e-07
-8.01074e-12
3.27172e-07
-7.24041e-07
-7.37991e-12
3.94863e-07
-1.04615e-06
-3.81947e-12
3.21599e-07
-1.25479e-06
-2.50938e-12
2.0828e-07
-1.3317e-06
-1.83087e-12
7.65592e-08
-1.2692e-06
-1.10043e-12
-6.29214e-08
-1.06931e-06
-4.84706e-13
-2.0037e-07
-7.46439e-07
-1.04176e-13
-3.23345e-07
-3.40642e-07
2.82503e-13
-4.0608e-07
1.12014e-12
-3.40552e-07
-3.28337e-07
1.15687e-09
3.27172e-07
-7.2404e-07
8.32939e-10
3.94863e-07
-1.04615e-06
5.09532e-10
3.21598e-07
-1.25479e-06
3.57536e-10
2.08279e-07
-1.3317e-06
3.50733e-10
7.65592e-08
-1.2692e-06
4.15504e-10
-6.29213e-08
-1.06931e-06
4.85212e-10
-2.0037e-07
-7.46439e-07
4.69992e-10
-3.23345e-07
-3.40642e-07
2.82389e-10
-4.0608e-07
-8.88995e-11
-3.40552e-07
-3.28656e-07
2.07329e-09
3.27739e-07
-7.24287e-07
1.0457e-09
3.95419e-07
-1.04623e-06
4.31364e-10
3.22019e-07
-1.25472e-06
3.08427e-10
2.08538e-07
-1.33155e-06
5.2782e-10
7.66521e-08
-1.26905e-06
8.96637e-10
-6.2981e-08
-1.06926e-06
1.26003e-09
-2.00559e-07
-7.46559e-07
1.39928e-09
-3.23633e-07
-3.40881e-07
1.03733e-09
-4.06434e-07
-5.4781e-11
-3.40915e-07
-3.29032e-07
2.47809e-09
3.28627e-07
-7.23746e-07
-3.61433e-10
3.96121e-07
-1.04483e-06
-9.87973e-10
3.22507e-07
-1.25272e-06
-6.44238e-10
2.08841e-07
-1.32927e-06
2.88472e-10
7.67912e-08
-1.26689e-06
1.49439e-09
-6.29831e-08
-1.06762e-06
2.64413e-09
-2.00657e-07
-7.45805e-07
3.37332e-09
-3.23785e-07
-3.41093e-07
2.97794e-09
-4.06652e-07
2.09571e-10
-3.41357e-07
-3.23479e-07
1.789e-09
3.24168e-07
-7.09908e-07
-2.96816e-09
3.89035e-07
-1.02406e-06
-3.48129e-09
3.16641e-07
-1.22754e-06
-2.29698e-09
2.05132e-07
-1.30249e-06
-3.55801e-10
7.56031e-08
-1.24142e-06
1.90992e-09
-6.14864e-08
-1.04641e-06
4.14892e-09
-1.96515e-07
-7.31575e-07
5.81112e-09
-3.17275e-07
-3.35529e-07
5.66075e-09
-3.98728e-07
6.31555e-10
-3.35951e-07
-2.54798e-07
2.56587e-07
-5.5965e-07
3.01884e-07
-8.08676e-07
2.45544e-07
-9.7068e-07
1.59708e-07
-1.03094e-06
5.99076e-08
-9.83143e-07
-4.58908e-08
-8.28753e-07
-1.50241e-07
-5.79186e-07
-2.43756e-07
-2.65725e-07
-3.07801e-07
-2.65093e-07
-3.55808e-07
-8.3004e-09
6.20695e-07
-7.67401e-07
-2.55475e-09
7.16034e-07
-1.10037e-06
-7.89765e-10
5.79304e-07
-1.31574e-06
-4.86274e-10
3.75566e-07
-1.39593e-06
-7.79183e-10
1.40877e-07
-1.33332e-06
-1.40446e-09
-1.07101e-07
-1.12898e-06
-2.10451e-09
-3.52476e-07
-7.95718e-07
-2.45016e-09
-5.74567e-07
-3.72023e-07
-1.19826e-09
-7.30299e-07
4.86371e-09
-6.41979e-07
-4.6123e-07
-6.44254e-09
7.83543e-07
-9.922e-07
-3.49935e-09
9.20962e-07
-1.41997e-06
-1.83306e-09
7.45465e-07
-1.69543e-06
-1.17635e-09
4.81287e-07
-1.79683e-06
-1.08068e-09
1.77298e-07
-1.71508e-06
-1.27856e-09
-1.43362e-07
-1.45194e-06
-1.53452e-09
-4.60218e-07
-1.02376e-06
-1.48129e-09
-7.4643e-07
-4.79075e-07
-4.07826e-10
-9.44207e-07
2.91333e-09
-8.13076e-07
-4.70205e-07
-4.05707e-09
7.96452e-07
-1.01383e-06
-2.95563e-09
9.39207e-07
-1.45179e-06
-1.86364e-09
7.60513e-07
-1.73371e-06
-1.22319e-09
4.90808e-07
-1.83743e-06
-9.26961e-10
1.8036e-07
-1.75371e-06
-8.3742e-10
-1.47143e-07
-1.48433e-06
-7.90357e-10
-4.70784e-07
-1.04591e-06
-5.68553e-10
-7.63119e-07
-4.88348e-07
1.25768e-10
-9.64752e-07
1.39782e-09
-8.28191e-07
-4.69882e-07
-1.99475e-09
7.95559e-07
-1.01461e-06
-1.65089e-09
9.38844e-07
-1.45371e-06
-1.11955e-09
7.60379e-07
-1.73642e-06
-7.4412e-10
4.90771e-07
-1.8405e-06
-5.21947e-10
1.80329e-07
-1.75666e-06
-3.98515e-10
-1.47262e-07
-1.48663e-06
-3.0424e-10
-4.71072e-07
-1.04707e-06
-1.49079e-10
-7.6362e-07
-4.88216e-07
1.803e-10
-9.65341e-07
5.91694e-10
-8.28324e-07
-4.69452e-07
-7.19919e-12
7.94636e-07
-1.01422e-06
2.45227e-14
9.37976e-07
-1.45349e-06
2.87047e-12
7.59753e-07
-1.73637e-06
2.42028e-12
4.90413e-07
-1.84056e-06
1.37587e-12
1.80225e-07
-1.75673e-06
5.95899e-13
-1.47151e-07
-1.48661e-06
-2.11185e-14
-4.70793e-07
-1.04688e-06
-5.03344e-13
-7.63231e-07
-4.879e-07
-6.18099e-13
-9.64875e-07
4.28297e-13
-8.2786e-07
-4.69453e-07
1.98013e-09
7.94637e-07
-1.01422e-06
1.65198e-09
9.37975e-07
-1.45349e-06
1.12666e-09
7.59752e-07
-1.73637e-06
7.49531e-10
4.90413e-07
-1.84056e-06
5.24802e-10
1.80224e-07
-1.75673e-06
3.99549e-10
-1.47151e-07
-1.48661e-06
3.04108e-10
-4.70792e-07
-1.04688e-06
1.47957e-10
-7.63231e-07
-4.879e-07
-1.81696e-10
-9.64875e-07
-5.91005e-10
-8.2786e-07
-4.69885e-07
4.04473e-09
7.9556e-07
-1.01461e-06
2.96082e-09
9.38839e-07
-1.45372e-06
1.87348e-09
7.60373e-07
-1.73642e-06
1.22946e-09
4.90767e-07
-1.8405e-06
9.29685e-10
1.80327e-07
-1.75666e-06
8.37909e-10
-1.47263e-07
-1.48663e-06
7.89972e-10
-4.71072e-07
-1.04707e-06
5.67312e-10
-7.63619e-07
-4.88217e-07
-1.27128e-10
-9.65339e-07
-1.39755e-09
-8.28325e-07
-4.70214e-07
6.43435e-09
7.96451e-07
-1.01384e-06
3.50983e-09
9.39196e-07
-1.4518e-06
1.84368e-09
7.60502e-07
-1.73372e-06
1.18179e-09
4.90802e-07
-1.83744e-06
1.08252e-09
1.80357e-07
-1.75372e-06
1.27838e-09
-1.47144e-07
-1.48433e-06
1.53347e-09
-4.70783e-07
-1.04591e-06
1.47956e-09
-7.63116e-07
-4.8835e-07
4.06505e-10
-9.6475e-07
-2.91363e-09
-8.28191e-07
-4.61243e-07
8.29849e-09
7.83547e-07
-9.92215e-07
2.56791e-09
9.20949e-07
-1.41998e-06
7.9777e-10
7.45453e-07
-1.69544e-06
4.89516e-10
4.81281e-07
-1.79683e-06
7.7996e-10
1.77295e-07
-1.71508e-06
1.40356e-09
-1.43363e-07
-1.45194e-06
2.10312e-09
-4.60216e-07
-1.02376e-06
2.44846e-09
-7.46428e-07
-4.79076e-07
1.19712e-09
-9.44205e-07
-4.86377e-09
-8.13076e-07
-3.55809e-07
6.20694e-07
-7.67396e-07
7.16039e-07
-1.10036e-06
5.79304e-07
-1.31573e-06
3.75569e-07
-1.39592e-06
1.4088e-07
-1.33331e-06
-1.07099e-07
-1.12898e-06
-3.52473e-07
-7.95718e-07
-5.74566e-07
-3.72022e-07
-7.30299e-07
-6.41979e-07
-4.34881e-07
-1.26787e-08
1.06825e-06
-9.28367e-07
-5.95952e-09
1.21548e-06
-1.31931e-06
-3.40373e-09
9.73651e-07
-1.56931e-06
-2.24662e-09
6.27814e-07
-1.66413e-06
-1.65388e-09
2.37354e-07
-1.59681e-06
-1.45669e-09
-1.72968e-07
-1.36491e-06
-1.4673e-09
-5.82909e-07
-9.74897e-07
-1.28882e-09
-9.63292e-07
-4.62681e-07
4.09958e-10
-1.24293e-06
7.53413e-09
-1.11219e-06
-5.64958e-07
-9.98558e-09
1.34581e-06
-1.203e-06
-6.60235e-09
1.55965e-06
-1.70651e-06
-4.17132e-09
1.24975e-06
-2.02697e-06
-2.66822e-09
8.02162e-07
-2.14693e-06
-1.71814e-09
2.97323e-07
-2.05829e-06
-1.14869e-09
-2.32304e-07
-1.7585e-06
-7.85966e-10
-7.60688e-07
-1.25597e-06
-3.06552e-10
-1.24994e-06
-5.96419e-07
1.28303e-09
-1.60463e-06
4.93574e-09
-1.4069e-06
-5.75907e-07
-6.24048e-09
1.36861e-06
-1.22922e-06
-5.01594e-09
1.59094e-06
-1.74482e-06
-3.38897e-09
1.27532e-06
-2.07284e-06
-2.15248e-09
8.18318e-07
-2.19558e-06
-1.27269e-09
3.02654e-07
-2.1048e-06
-6.63678e-10
-2.38411e-07
-1.79787e-06
-2.09702e-10
-7.78285e-07
-1.28336e-06
3.41115e-10
-1.27828e-06
-6.08079e-07
1.30153e-09
-1.64006e-06
2.60563e-09
-1.43394e-06
-5.75408e-07
-3.00932e-09
1.36774e-06
-1.22991e-06
-2.63919e-09
1.59097e-06
-1.74674e-06
-1.84848e-09
1.27567e-06
-2.07567e-06
-1.17498e-09
8.18721e-07
-2.19886e-06
-6.61947e-10
3.02913e-07
-2.10802e-06
-2.83767e-10
-2.38481e-07
-1.80047e-06
9.7403e-13
-7.78835e-07
-1.28471e-06
3.2882e-10
-1.27936e-06
-6.07976e-07
7.65581e-10
-1.64154e-06
1.14989e-09
-1.43484e-06
-5.74817e-07
-3.87861e-12
1.36645e-06
-1.22928e-06
2.45091e-12
1.58979e-06
-1.74627e-06
4.60003e-12
1.27489e-06
-2.07538e-06
3.60413e-12
8.18348e-07
-2.19872e-06
2.13266e-12
3.02897e-07
-2.10794e-06
1.05064e-12
-2.38215e-07
-1.80035e-06
3.57127e-13
-7.78384e-07
-1.28444e-06
-3.20041e-13
-1.27881e-06
-6.07605e-07
-6.13391e-13
-1.64095e-06
-3.78236e-14
-1.43431e-06
-5.74817e-07
3.00216e-09
1.36645e-06
-1.22928e-06
2.64527e-09
1.58979e-06
-1.74627e-06
1.85843e-09
1.27489e-06
-2.07538e-06
1.18237e-09
8.18347e-07
-2.19872e-06
6.66007e-10
3.02897e-07
-2.10794e-06
2.85423e-10
-2.38215e-07
-1.80035e-06
-5.10971e-13
-7.78383e-07
-1.28444e-06
-3.29635e-10
-1.2788e-06
-6.07605e-07
-7.66783e-10
-1.64095e-06
-1.14996e-09
-1.43431e-06
-5.7541e-07
6.2353e-09
1.36774e-06
-1.22991e-06
5.02433e-09
1.59096e-06
-1.74675e-06
3.39972e-09
1.27567e-06
-2.07567e-06
2.15935e-09
8.18717e-07
-2.19887e-06
1.27568e-09
3.0291e-07
-2.10803e-06
6.64223e-10
-2.38482e-07
-1.80047e-06
2.09412e-10
-7.78834e-07
-1.28472e-06
-3.4226e-10
-1.27936e-06
-6.07977e-07
-1.30268e-09
-1.64154e-06
-2.60583e-09
-1.43485e-06
-5.75913e-07
9.98366e-09
1.36862e-06
-1.22923e-06
6.61205e-09
1.59093e-06
-1.74483e-06
4.18061e-09
1.27531e-06
-2.07285e-06
2.67269e-09
8.18312e-07
-2.19559e-06
1.71895e-09
3.0265e-07
-2.1048e-06
1.14706e-09
-2.38412e-07
-1.79788e-06
7.84231e-10
-7.78283e-07
-1.28337e-06
3.04916e-10
-1.27827e-06
-6.08079e-07
-1.2845e-09
-1.64005e-06
-4.93603e-09
-1.43394e-06
-5.64966e-07
1.26831e-08
1.34581e-06
-1.20301e-06
5.96656e-09
1.55964e-06
-1.70652e-06
3.40843e-09
1.24974e-06
-2.02697e-06
2.2475e-09
8.02156e-07
-2.14693e-06
1.65208e-09
2.9732e-07
-2.05829e-06
1.45338e-09
-2.32305e-07
-1.7585e-06
1.46456e-09
-7.60687e-07
-1.25597e-06
1.28691e-09
-1.24994e-06
-5.96419e-07
-4.10531e-10
-1.60463e-06
-7.53408e-09
-1.4069e-06
-4.34886e-07
1.06826e-06
-9.28367e-07
1.21549e-06
-1.31931e-06
9.73653e-07
-1.56931e-06
6.27816e-07
-1.66413e-06
2.37356e-07
-1.59681e-06
-1.72966e-07
-1.36491e-06
-5.82908e-07
-9.74897e-07
-9.63291e-07
-4.62681e-07
-1.24293e-06
-1.11219e-06
-5.67216e-07
-1.81812e-08
1.65365e-06
-1.18602e-06
-9.98032e-09
1.84426e-06
-1.65874e-06
-6.3307e-09
1.45271e-06
-1.95494e-06
-4.17217e-09
9.28186e-07
-2.07042e-06
-2.65445e-09
3.5548e-07
-2.00107e-06
-1.67283e-09
-2.40644e-07
-1.73714e-06
-1.0956e-09
-8.45742e-07
-1.26947e-06
-5.10235e-10
-1.43044e-06
-6.20571e-07
1.36272e-09
-1.89319e-06
9.73373e-09
-1.7425e-06
-7.35966e-07
-1.46245e-08
2.07822e-06
-1.53606e-06
-1.05457e-08
2.3603e-06
-2.14523e-06
-6.9493e-09
1.85954e-06
-2.525e-06
-4.30183e-09
1.18206e-06
-2.67088e-06
-2.31022e-09
4.42867e-07
-2.57863e-06
-9.11031e-10
-3.25317e-07
-2.23655e-06
-1.33918e-11
-1.10386e-06
-1.63338e-06
1.00656e-09
-1.85463e-06
-7.98276e-07
2.86918e-09
-2.44124e-06
6.81579e-09
-2.20225e-06
-7.4994e-07
-9.20936e-09
2.11314e-06
-1.56896e-06
-7.74129e-09
2.40715e-06
-2.19272e-06
-5.28172e-09
1.89742e-06
-2.5815e-06
-3.18054e-09
1.20598e-06
-2.73081e-06
-1.51646e-09
4.51165e-07
-2.63638e-06
-2.8606e-10
-3.33463e-07
-2.28632e-06
6.61946e-10
-1.12902e-06
-1.66888e-06
1.5369e-09
-1.89625e-06
-8.14004e-07
2.67399e-09
-2.49474e-06
3.90088e-09
-2.24503e-06
-7.49146e-07
-4.42646e-09
2.1121e-06
-1.56943e-06
-3.98408e-09
2.40749e-06
-2.19461e-06
-2.77857e-09
1.89835e-06
-2.58448e-06
-1.65607e-09
1.20707e-06
-2.73442e-06
-7.32399e-10
4.52066e-07
-2.64008e-06
-3.85093e-11
-3.33065e-07
-2.28944e-06
5.27905e-10
-1.12934e-06
-1.67071e-06
1.01009e-09
-1.89757e-06
-8.14127e-07
1.52103e-09
-2.49697e-06
1.81004e-09
-2.24688e-06
-7.48301e-07
-2.64105e-12
2.11032e-06
-1.56842e-06
1.90085e-12
2.40592e-06
-2.19374e-06
3.3183e-12
1.89744e-06
-2.58385e-06
2.51252e-12
1.20679e-06
-2.734e-06
1.23668e-12
4.52313e-07
-2.63982e-06
3.87856e-13
-3.32436e-07
-2.28921e-06
1.88766e-13
-1.12846e-06
-1.67039e-06
-2.03768e-13
-1.89661e-06
-8.13746e-07
-4.75537e-13
-2.49607e-06
-2.81748e-13
-2.24625e-06
-7.48301e-07
4.42136e-09
2.11032e-06
-1.56842e-06
3.98835e-09
2.40592e-06
-2.19374e-06
2.7854e-09
1.89744e-06
-2.58385e-06
1.66104e-09
1.20679e-06
-2.734e-06
7.3459e-10
4.52313e-07
-2.63982e-06
3.876e-11
-3.32435e-07
-2.28921e-06
-5.27685e-10
-1.12846e-06
-1.67039e-06
-1.01046e-09
-1.89661e-06
-8.13746e-07
-1.52186e-09
-2.49607e-06
-1.8106e-09
-2.24625e-06
-7.49147e-07
9.20521e-09
2.1121e-06
-1.56943e-06
7.74613e-09
2.40748e-06
-2.19461e-06
5.28829e-09
1.89835e-06
-2.58448e-06
3.18458e-09
1.20707e-06
-2.73442e-06
1.5176e-09
4.52064e-07
-2.64008e-06
2.85312e-10
-3.33065e-07
-2.28944e-06
-6.62325e-10
-1.12934e-06
-1.67071e-06
-1.53755e-09
-1.89757e-06
-8.14126e-07
-2.67487e-09
-2.49697e-06
-3.90135e-09
-2.24688e-06
-7.49943e-07
1.46221e-08
2.11314e-06
-1.56896e-06
1.05504e-08
2.40715e-06
-2.19272e-06
6.9542e-09
1.89741e-06
-2.58151e-06
4.30372e-09
1.20598e-06
-2.73081e-06
2.30925e-09
4.51162e-07
-2.63638e-06
9.08253e-10
-3.33464e-07
-2.28632e-06
1.17393e-11
-1.12901e-06
-1.66888e-06
-1.0077e-09
-1.89624e-06
-8.14003e-07
-2.87005e-09
-2.49474e-06
-6.81584e-09
-2.24503e-06
-7.35968e-07
1.81813e-08
2.07822e-06
-1.53606e-06
9.98326e-09
2.3603e-06
-2.14523e-06
6.3327e-09
1.85953e-06
-2.525e-06
4.17154e-09
1.18205e-06
-2.67089e-06
2.65157e-09
4.42864e-07
-2.57864e-06
1.66875e-09
-3.25318e-07
-2.23655e-06
1.09353e-09
-1.10386e-06
-1.63338e-06
5.0974e-10
-1.85463e-06
-7.98275e-07
-1.36297e-09
-2.44124e-06
-9.73367e-09
-2.20225e-06
-5.67216e-07
1.65366e-06
-1.18602e-06
1.84427e-06
-1.65874e-06
1.45271e-06
-1.95494e-06
9.28188e-07
-2.07041e-06
3.55481e-07
-2.00107e-06
-2.40645e-07
-1.73714e-06
-8.45744e-07
-1.26947e-06
-1.43045e-06
-6.2057e-07
-1.89319e-06
-1.7425e-06
-7.93946e-07
-2.66584e-08
2.47426e-06
-1.59564e-06
-1.62706e-08
2.66223e-06
-2.17202e-06
-1.05277e-08
2.03961e-06
-2.52079e-06
-6.56541e-09
1.28352e-06
-2.66157e-06
-3.55901e-09
4.99822e-07
-2.59839e-06
-1.3704e-09
-3.02452e-07
-2.30846e-06
1.27338e-10
-1.1358e-06
-1.74938e-06
8.14133e-10
-1.99034e-06
-9.0337e-07
3.02961e-09
-2.74223e-06
1.1871e-08
-2.65774e-06
-1.02683e-06
-2.14801e-08
3.09987e-06
-2.06343e-06
-1.62973e-08
3.39693e-06
-2.80687e-06
-1.0617e-08
2.60306e-06
-3.25426e-06
-6.04768e-09
1.62894e-06
-3.43185e-06
-2.50919e-09
6.19406e-07
-3.34593e-06
-4.34952e-11
-4.1257e-07
-2.96864e-06
1.98713e-09
-1.483e-06
-2.24685e-06
3.34283e-09
-2.57895e-06
-1.15826e-06
5.32979e-09
-3.53213e-06
8.85435e-09
-3.3575e-06
-1.04575e-06
-1.34457e-08
3.15086e-06
-2.1065e-06
-1.15382e-08
3.46314e-06
-2.86783e-06
-7.66063e-09
2.65579e-06
-3.32605e-06
-4.17176e-09
1.66232e-06
-3.50795e-06
-1.35139e-09
6.31913e-07
-3.42028e-06
7.76866e-10
-4.21958e-07
-3.0343e-06
2.39592e-09
-1.5154e-06
-2.29557e-06
3.58835e-09
-2.63523e-06
-1.18164e-06
4.76426e-09
-3.6081e-06
5.45577e-09
-3.42327e-06
-1.04448e-06
-6.40851e-09
3.14954e-06
-2.10654e-06
-5.81489e-09
3.46383e-06
-2.86958e-06
-3.92172e-09
2.65765e-06
-3.32921e-06
-2.09399e-09
1.66463e-06
-3.51206e-06
-5.71446e-10
6.34127e-07
-3.42469e-06
6.08492e-10
-4.20264e-07
-3.03839e-06
1.50124e-09
-1.51474e-06
-2.29841e-06
2.14999e-09
-2.63612e-06
-1.18254e-06
2.66234e-09
-3.61074e-06
2.64605e-09
-3.42661e-06
-1.04322e-06
-1.78501e-12
3.14714e-06
-2.10492e-06
1.59049e-12
3.4618e-06
-2.8681e-06
2.49527e-12
2.65669e-06
-3.32807e-06
1.89508e-12
1.66467e-06
-3.51126e-06
8.01898e-13
6.34931e-07
-3.42418e-06
4.28968e-13
-4.18907e-07
-3.03808e-06
7.60749e-13
-1.51307e-06
-2.29815e-06
5.56761e-13
-2.63439e-06
-1.1823e-06
1.11994e-13
-3.60926e-06
-2.18527e-13
-3.4259e-06
-1.04322e-06
6.40493e-09
3.14714e-06
-2.10492e-06
5.81811e-09
3.4618e-06
-2.8681e-06
3.92662e-09
2.65669e-06
-3.32807e-06
2.09774e-09
1.66467e-06
-3.51126e-06
5.72849e-10
6.34931e-07
-3.42418e-06
-6.07745e-10
-4.18907e-07
-3.03808e-06
-1.49955e-09
-1.51306e-06
-2.29815e-06
-2.14866e-09
-2.63439e-06
-1.1823e-06
-2.6619e-09
-3.60926e-06
-2.64657e-09
-3.4259e-06
-1.04448e-06
1.34428e-08
3.14954e-06
-2.10654e-06
1.15415e-08
3.46382e-06
-2.86958e-06
7.66503e-09
2.65764e-06
-3.32922e-06
4.17464e-09
1.66463e-06
-3.51206e-06
1.35227e-09
6.34126e-07
-3.42469e-06
-7.76722e-10
-4.20265e-07
-3.03839e-06
-2.39423e-09
-1.51474e-06
-2.29841e-06
-3.58695e-09
-2.63612e-06
-1.18253e-06
-4.76398e-09
-3.61074e-06
-5.45596e-09
-3.42661e-06
-1.04576e-06
2.14785e-08
3.15086e-06
-2.1065e-06
1.63003e-08
3.46313e-06
-2.86783e-06
1.06202e-08
2.65579e-06
-3.32605e-06
6.04883e-09
1.66232e-06
-3.50796e-06
2.50833e-09
6.31912e-07
-3.42028e-06
4.19952e-11
-4.21959e-07
-3.0343e-06
-1.98567e-09
-1.5154e-06
-2.29557e-06
-3.34114e-09
-2.63523e-06
-1.18164e-06
-5.32944e-09
-3.6081e-06
-8.854e-09
-3.42327e-06
-1.02683e-06
2.66593e-08
3.09988e-06
-2.06344e-06
1.62732e-08
3.39693e-06
-2.80687e-06
1.05291e-08
2.60305e-06
-3.25427e-06
6.56444e-09
1.62894e-06
-3.43185e-06
3.55679e-09
6.19405e-07
-3.34593e-06
1.36818e-09
-4.1257e-07
-2.96865e-06
-1.2632e-10
-1.483e-06
-2.24685e-06
-8.11836e-10
-2.57895e-06
-1.15826e-06
-3.02933e-09
-3.53213e-06
-1.18713e-08
-3.3575e-06
-7.93945e-07
2.47427e-06
-1.59564e-06
2.66224e-06
-2.17201e-06
2.03962e-06
-2.52079e-06
1.28352e-06
-2.66157e-06
4.99823e-07
-2.5984e-06
-3.02452e-07
-2.30847e-06
-1.1358e-06
-1.74938e-06
-1.99034e-06
-9.03369e-07
-2.74223e-06
-2.65774e-06
-1.19574e-06
-4.06783e-08
3.71068e-06
-2.2368e-06
-2.66102e-08
3.7299e-06
-2.91405e-06
-1.62354e-08
2.7331e-06
-3.29995e-06
-8.73777e-09
1.67816e-06
-3.46325e-06
-3.18317e-09
6.66306e-07
-3.42622e-06
8.42951e-10
-3.40327e-07
-3.14711e-06
3.41347e-09
-1.41832e-06
-2.52053e-06
4.80376e-09
-2.62173e-06
-1.42637e-06
7.32823e-09
-3.84372e-06
1.32761e-08
-4.09738e-06
-1.5371e-06
-3.19922e-08
4.62828e-06
-2.88509e-06
-2.4796e-08
4.74311e-06
-3.76101e-06
-1.51027e-08
3.47784e-06
-4.25699e-06
-7.24182e-09
2.12343e-06
-4.46256e-06
-1.34774e-09
8.2314e-07
-4.40803e-06
3.23476e-09
-4.69498e-07
-4.04191e-06
6.43872e-09
-1.85214e-06
-3.23111e-06
8.37152e-09
-3.39332e-06
-1.82286e-06
1.02269e-08
-4.94328e-06
1.08759e-08
-5.17796e-06
-1.56412e-06
-1.95376e-08
4.70253e-06
-2.94308e-06
-1.67826e-08
4.83408e-06
-3.84068e-06
-1.04075e-08
3.5487e-06
-4.34936e-06
-4.66752e-09
2.16843e-06
-4.56047e-06
-1.54209e-10
8.41827e-07
-4.50504e-06
3.38464e-09
-4.77538e-07
-4.13071e-06
5.90965e-09
-1.8892e-06
-3.30133e-06
7.47702e-09
-3.46371e-06
-1.86151e-06
8.41202e-09
-5.0461e-06
7.29427e-09
-5.2812e-06
-1.56204e-06
-9.14973e-09
4.70119e-06
-2.94222e-06
-8.24905e-09
4.83547e-06
-3.84198e-06
-5.20643e-09
3.5522e-06
-4.35261e-06
-2.27596e-09
2.17288e-06
-4.56509e-06
1.03118e-10
8.46349e-07
-4.51046e-06
1.99332e-09
-4.73501e-07
-4.13633e-06
3.33972e-09
-1.88631e-06
-3.30613e-06
4.1651e-09
-3.46301e-06
-1.86454e-06
4.52594e-09
-5.04845e-06
3.68486e-09
-5.28753e-06
-1.56014e-06
-1.37745e-12
4.69813e-06
-2.93959e-06
8.31524e-13
4.83301e-06
-3.83954e-06
9.97811e-13
3.55143e-06
-4.35071e-06
7.21031e-13
2.17356e-06
-4.56375e-06
3.27049e-13
8.48077e-07
-4.50964e-06
7.01353e-13
-4.71027e-07
-4.13598e-06
1.54936e-12
-1.88338e-06
-3.30614e-06
1.07997e-12
-3.46007e-06
-1.86483e-06
-5.54413e-14
-5.04604e-06
-3.06887e-13
-5.28705e-06
-1.56014e-06
9.14703e-09
4.69813e-06
-2.93959e-06
8.25042e-09
4.83301e-06
-3.83954e-06
5.20822e-09
3.55143e-06
-4.35071e-06
2.27724e-09
2.17356e-06
-4.56375e-06
-1.02731e-10
8.48077e-07
-4.50964e-06
-1.99215e-09
-4.71027e-07
-4.13598e-06
-3.33647e-09
-1.88338e-06
-3.30614e-06
-4.16277e-09
-3.46007e-06
-1.86483e-06
-4.52598e-09
-5.04604e-06
-3.68566e-09
-5.28705e-06
-1.56204e-06
1.95356e-08
4.70119e-06
-2.94222e-06
1.67834e-08
4.83547e-06
-3.84198e-06
1.04082e-08
3.5522e-06
-4.35261e-06
4.66748e-09
2.17288e-06
-4.56509e-06
1.53628e-10
8.46348e-07
-4.51046e-06
-3.38442e-09
-4.73501e-07
-4.13633e-06
-5.90686e-09
-1.88631e-06
-3.30613e-06
-7.4752e-09
-3.46301e-06
-1.86454e-06
-8.41284e-09
-5.04845e-06
-7.2945e-09
-5.28753e-06
-1.56413e-06
3.1991e-08
4.70253e-06
-2.94308e-06
2.47963e-08
4.83408e-06
-3.84068e-06
1.51018e-08
3.54869e-06
-4.34936e-06
7.23951e-09
2.16842e-06
-4.56047e-06
1.34546e-09
8.41827e-07
-4.50504e-06
-3.23617e-09
-4.77538e-07
-4.13071e-06
-6.43637e-09
-1.8892e-06
-3.30133e-06
-8.36976e-09
-3.46371e-06
-1.86151e-06
-1.02282e-08
-5.0461e-06
-1.08758e-08
-5.2812e-06
-1.5371e-06
4.06794e-08
4.62828e-06
-2.88509e-06
2.66101e-08
4.74311e-06
-3.76101e-06
1.62323e-08
3.47784e-06
-4.25699e-06
8.73318e-09
2.12343e-06
-4.46256e-06
3.17948e-09
8.2314e-07
-4.40803e-06
-8.44527e-10
-4.69498e-07
-4.04192e-06
-3.41081e-09
-1.85214e-06
-3.23111e-06
-4.801e-09
-3.39332e-06
-1.82287e-06
-7.32943e-09
-4.94328e-06
-1.32781e-08
-5.17796e-06
-1.19574e-06
3.71069e-06
-2.2368e-06
3.7299e-06
-2.91405e-06
2.7331e-06
-3.29995e-06
1.67816e-06
-3.46325e-06
6.66305e-07
-3.42622e-06
-3.40328e-07
-3.14711e-06
-1.41832e-06
-2.52053e-06
-2.62172e-06
-1.42637e-06
-3.84372e-06
-4.09738e-06
-1.9506e-06
-6.29605e-08
5.72424e-06
-3.2427e-06
-4.21108e-08
5.06411e-06
-3.94203e-06
-2.13195e-08
3.45375e-06
-4.29609e-06
-7.45388e-09
2.03967e-06
-4.45853e-06
1.70735e-09
8.27039e-07
-4.48324e-06
8.6393e-09
-3.24252e-07
-4.31113e-06
1.39064e-08
-1.60434e-06
-3.73982e-06
1.65356e-08
-3.20957e-06
-2.4165e-06
1.96954e-08
-5.18674e-06
1.10785e-08
-6.52496e-06
-2.48457e-06
-4.74201e-08
7.09731e-06
-4.16521e-06
-3.65045e-08
6.41815e-06
-5.0765e-06
-1.90509e-08
4.38686e-06
-5.53396e-06
-5.76398e-09
2.57921e-06
-5.73729e-06
3.74252e-09
1.02443e-06
-5.75816e-06
1.10714e-08
-4.51063e-07
-5.52361e-06
1.64922e-08
-2.08927e-06
-4.77751e-06
1.94835e-08
-4.14237e-06
-3.0693e-06
2.10885e-08
-6.65288e-06
1.17779e-08
-8.24796e-06
-2.52598e-06
-2.78646e-08
7.20895e-06
-4.24467e-06
-2.35698e-08
6.53984e-06
-5.18053e-06
-1.28793e-08
4.47838e-06
-5.65153e-06
-3.66796e-09
2.63733e-06
-5.86102e-06
3.3657e-09
1.05169e-06
-5.88267e-06
8.7202e-09
-4.53535e-07
-5.64328e-06
1.26345e-08
-2.12474e-06
-4.88083e-06
1.47639e-08
-4.22144e-06
-3.13688e-06
1.51312e-08
-6.78409e-06
8.89971e-09
-8.4152e-06
-2.52286e-06
-1.27458e-08
7.20893e-06
-4.24209e-06
-1.13017e-08
6.54244e-06
-5.1808e-06
-6.39735e-09
4.48443e-06
-5.65458e-06
-1.83286e-09
2.64483e-06
-5.86605e-06
1.79889e-09
1.05938e-06
-5.88912e-06
4.56986e-09
-4.46283e-07
-5.65097e-06
6.5543e-09
-2.11837e-06
-4.889e-06
7.59256e-09
-4.2178e-06
-3.14475e-06
7.58068e-09
-6.78515e-06
4.70551e-09
-8.42809e-06
-2.52002e-06
-1.31647e-12
7.2054e-06
-4.23789e-06
-2.67147e-13
6.53958e-06
-5.17693e-06
-3.95571e-13
4.48407e-06
-5.65161e-06
7.38017e-14
2.6464e-06
-5.86396e-06
4.31332e-13
1.06223e-06
-5.88784e-06
1.10657e-12
-4.42574e-07
-5.65064e-06
1.58526e-12
-2.11404e-06
-4.88962e-06
5.23712e-13
-4.21349e-06
-3.14638e-06
-3.03352e-13
-6.7817e-06
-2.87576e-13
-8.42872e-06
-2.52002e-06
1.27433e-08
7.20541e-06
-4.23789e-06
1.13004e-08
6.53958e-06
-5.17693e-06
6.39612e-09
4.48407e-06
-5.65161e-06
1.83256e-09
2.6464e-06
-5.86396e-06
-1.79811e-09
1.06223e-06
-5.88784e-06
-4.56797e-09
-4.42574e-07
-5.65064e-06
-6.55102e-09
-2.11404e-06
-4.88962e-06
-7.59134e-09
-4.21349e-06
-3.14638e-06
-7.58136e-09
-6.7817e-06
-4.70608e-09
-8.42872e-06
-2.52286e-06
2.78623e-08
7.20893e-06
-4.24209e-06
2.35674e-08
6.54244e-06
-5.1808e-06
1.2877e-08
4.48442e-06
-5.65458e-06
3.66686e-09
2.64483e-06
-5.86605e-06
-3.36545e-09
1.05938e-06
-5.88912e-06
-8.7189e-09
-4.46283e-07
-5.65097e-06
-1.2632e-08
-2.11837e-06
-4.889e-06
-1.47634e-08
-4.2178e-06
-3.14475e-06
-1.51325e-08
-6.78515e-06
-8.89913e-09
-8.42809e-06
-2.52598e-06
4.74176e-08
7.20896e-06
-4.24467e-06
3.65008e-08
6.53984e-06
-5.18053e-06
1.90469e-08
4.47838e-06
-5.65153e-06
5.76132e-09
2.63733e-06
-5.86102e-06
-3.74314e-09
1.05169e-06
-5.88267e-06
-1.1071e-08
-4.53535e-07
-5.64328e-06
-1.64899e-08
-2.12474e-06
-4.88083e-06
-1.9483e-08
-4.22144e-06
-3.13688e-06
-2.1089e-08
-6.78409e-06
-1.17758e-08
-8.4152e-06
-2.48457e-06
6.29596e-08
7.09731e-06
-4.16521e-06
4.21067e-08
6.41815e-06
-5.0765e-06
2.13141e-08
4.38686e-06
-5.53396e-06
7.45006e-09
2.57921e-06
-5.73729e-06
-1.70782e-09
1.02444e-06
-5.75816e-06
-8.6384e-09
-4.51063e-07
-5.52361e-06
-1.39034e-08
-2.08927e-06
-4.77751e-06
-1.65346e-08
-4.14237e-06
-3.0693e-06
-1.9697e-08
-6.65289e-06
-1.10796e-08
-8.24796e-06
-1.9506e-06
5.72424e-06
-3.24269e-06
5.06411e-06
-3.94203e-06
3.45375e-06
-4.29609e-06
2.03967e-06
-4.45853e-06
8.27038e-07
-4.48325e-06
-3.24253e-07
-4.31113e-06
-1.60434e-06
-3.73982e-06
-3.20957e-06
-2.41649e-06
-5.18675e-06
-6.52496e-06
-3.37443e-06
-8.24971e-08
9.18116e-06
-4.64642e-06
-5.67982e-08
6.3929e-06
-5.07721e-06
-1.55609e-08
3.9001e-06
-5.20891e-06
6.18566e-09
2.16519e-06
-5.28842e-06
1.89763e-08
8.87564e-07
-5.40532e-06
2.99575e-08
-2.37301e-07
-5.49816e-06
4.21031e-08
-1.55362e-06
-5.25733e-06
5.24479e-08
-3.50285e-06
-4.01273e-06
6.95821e-08
-6.50092e-06
1.74302e-08
-1.05551e-05
-4.24715e-06
-6.32954e-08
1.13253e-05
-5.92597e-06
-4.91864e-08
8.08936e-06
-6.49729e-06
-1.80873e-08
4.96071e-06
-6.66549e-06
2.96913e-09
2.75062e-06
-6.75295e-06
1.64805e-08
1.11439e-06
-6.87694e-06
2.73179e-08
-3.24435e-07
-6.96191e-06
3.73215e-08
-1.99952e-06
-6.61166e-06
4.42709e-08
-4.48444e-06
-4.97314e-06
5.08553e-08
-8.27267e-06
1.43759e-08
-1.3218e-05
-4.31468e-06
-3.72643e-08
1.14976e-05
-6.03039e-06
-3.1468e-08
8.23783e-06
-6.62192e-06
-1.37646e-08
5.06558e-06
-6.79883e-06
4.4981e-10
2.81676e-06
-6.88945e-06
1.02875e-08
1.1485e-06
-7.01446e-06
1.79599e-08
-3.19163e-07
-7.10067e-06
2.42025e-08
-2.02541e-06
-6.74173e-06
2.77559e-08
-4.56387e-06
-5.07372e-06
2.84321e-08
-8.42968e-06
1.00024e-08
-1.34845e-05
-4.3107e-06
-1.68938e-08
1.14993e-05
-6.0243e-06
-1.48974e-08
8.23946e-06
-6.61961e-06
-7.1787e-09
5.07315e-06
-6.80027e-06
-3.34729e-10
2.82627e-06
-6.89341e-06
4.72102e-09
1.15809e-06
-7.02005e-06
8.58167e-09
-3.10268e-07
-7.10903e-06
1.1491e-08
-2.01668e-06
-6.75262e-06
1.28986e-08
-4.55936e-06
-5.08959e-06
1.25124e-08
-8.43226e-06
5.26375e-09
-1.35129e-05
-4.3067e-06
-6.31745e-13
1.14952e-05
-6.01768e-06
-3.70286e-13
8.23567e-06
-6.61374e-06
-8.04901e-13
5.07295e-06
-6.79592e-06
4.51261e-14
2.82825e-06
-6.89035e-06
8.77963e-13
1.16138e-06
-7.01805e-06
1.21047e-12
-3.06297e-07
-7.10863e-06
9.02155e-13
-2.01196e-06
-6.75404e-06
4.78019e-13
-4.55519e-06
-5.09382e-06
2.99405e-13
-8.42941e-06
7.26061e-14
-1.35173e-05
-4.3067e-06
1.68927e-08
1.14952e-05
-6.01768e-06
1.4896e-08
8.23567e-06
-6.61374e-06
7.17695e-09
5.07295e-06
-6.79592e-06
3.34619e-10
2.82825e-06
-6.89035e-06
-4.71923e-09
1.16138e-06
-7.01805e-06
-8.57931e-09
-3.06297e-07
-7.10863e-06
-1.14891e-08
-2.01196e-06
-6.75404e-06
-1.28974e-08
-4.55519e-06
-5.09382e-06
-1.25122e-08
-8.42941e-06
-5.26365e-09
-1.35173e-05
-4.3107e-06
3.72628e-08
1.14993e-05
-6.0243e-06
3.14659e-08
8.23946e-06
-6.61961e-06
1.37629e-08
5.07315e-06
-6.80027e-06
-4.49955e-10
2.82627e-06
-6.89341e-06
-1.02855e-08
1.15809e-06
-7.02005e-06
-1.79581e-08
-3.10268e-07
-7.10903e-06
-2.42015e-08
-2.01668e-06
-6.75262e-06
-2.77555e-08
-4.55936e-06
-5.08959e-06
-2.8433e-08
-8.43226e-06
-1.00009e-08
-1.35129e-05
-4.31468e-06
6.32931e-08
1.14976e-05
-6.03039e-06
4.91833e-08
8.23783e-06
-6.62191e-06
1.80853e-08
5.06558e-06
-6.79883e-06
-2.96907e-09
2.81676e-06
-6.88945e-06
-1.64782e-08
1.1485e-06
-7.01446e-06
-2.73168e-08
-3.19163e-07
-7.10067e-06
-3.73208e-08
-2.02541e-06
-6.74173e-06
-4.42697e-08
-4.56386e-06
-5.07372e-06
-5.08548e-08
-8.42968e-06
-1.4374e-08
-1.34845e-05
-4.24715e-06
8.24961e-08
1.13253e-05
-5.92597e-06
5.6795e-08
8.08936e-06
-6.49729e-06
1.55589e-08
4.96071e-06
-6.66549e-06
-6.18533e-09
2.75063e-06
-6.75295e-06
-1.89736e-08
1.11439e-06
-6.87694e-06
-2.99557e-08
-3.24436e-07
-6.96191e-06
-4.21022e-08
-1.99952e-06
-6.61166e-06
-5.24478e-08
-4.48444e-06
-4.97314e-06
-6.95808e-08
-8.27267e-06
-1.74295e-08
-1.3218e-05
-3.37443e-06
9.18117e-06
-4.64642e-06
6.3929e-06
-5.07721e-06
3.9001e-06
-5.20892e-06
2.16519e-06
-5.28842e-06
8.87565e-07
-5.40532e-06
-2.37302e-07
-5.49816e-06
-1.55362e-06
-5.25733e-06
-3.50285e-06
-4.01273e-06
-6.50092e-06
-1.05551e-05
-4.18448e-06
-1.92544e-07
1.35582e-05
-4.16636e-06
-9.18596e-08
6.46664e-06
-3.45591e-06
6.73672e-09
3.18292e-06
-2.91713e-06
4.1582e-08
1.58483e-06
-2.70502e-06
5.46433e-08
6.20806e-07
-2.86223e-06
7.12562e-08
-1.51349e-07
-3.36015e-06
9.79861e-08
-1.15368e-06
-3.93839e-06
1.31033e-07
-3.05564e-06
-3.79025e-06
2.03393e-07
-6.85245e-06
7.74481e-09
-1.43531e-05
-5.15232e-06
-1.20888e-07
1.64059e-05
-5.16382e-06
-7.59838e-08
8.08498e-06
-4.23789e-06
-1.0019e-08
4.05154e-06
-3.50378e-06
2.13138e-08
2.03678e-06
-3.17429e-06
3.7806e-08
8.01738e-07
-3.29927e-06
5.33648e-08
-1.81568e-07
-3.83328e-06
7.08701e-08
-1.43839e-06
-4.45905e-06
8.77272e-08
-3.81537e-06
-4.13834e-06
1.15937e-07
-8.50593e-06
4.48332e-09
-1.73531e-05
-5.20909e-06
-5.98866e-08
1.66457e-05
-5.21836e-06
-4.5332e-08
8.21645e-06
-4.28232e-06
-1.36618e-08
4.13318e-06
-3.53658e-06
6.99302e-09
2.08535e-06
-3.19619e-06
1.9861e-08
8.2605e-07
-3.31622e-06
3.03796e-08
-1.76153e-07
-3.85262e-06
3.92804e-08
-1.45741e-06
-4.48681e-06
4.52315e-08
-3.88718e-06
-4.17612e-06
5.02889e-08
-8.67472e-06
4.58864e-09
-1.76608e-05
-5.19683e-06
-2.47315e-08
1.66609e-05
-5.19928e-06
-2.04382e-08
8.21702e-06
-4.26799e-06
-8.0376e-09
4.13625e-06