/*--------------------------------*- C++ -*----------------------------------*\
  =========                 |
  \\      /  F ield         | OpenFOAM: The Open Source CFD Toolbox
   \\    /   O peration     | Website:  https://openfoam.org
    \\  /    A nd           | Version:  9
     \\/     M anipulation  |
\*---------------------------------------------------------------------------*/
FoamFile
{
    format      ascii;
    class       volScalarField;
    location    "0.78";
    object      p;
}
// * * * * * * * * * * * * * * * * * * * * * * * * * * * * * * * * * * * * * //

dimensions      [0 2 -2 0 0 0 0];

internalField   nonuniform List<scalar> 
1000
(
6.07859e-06
-0.000482539
-0.000170525
0.000892599
0.00278115
0.00536799
0.00819242
0.0104915
0.0115619
0.0107058
0.000178027
-0.000725143
-0.000521347
0.000587343
0.00265815
0.00554465
0.00871143
0.0112292
0.0122421
0.0108362
0.000959492
-0.000219825
-5.47714e-05
0.00115491
0.0034748
0.00673108
0.0102796
0.0129425
0.0137068
0.0115583
0.00180476
0.000441277
0.000592707
0.00190357
0.0044515
0.00804655
0.0118611
0.0145787
0.0150814
0.0123396
0.00233582
0.00088525
0.00103567
0.00240663
0.00508004
0.00884853
0.0128089
0.0155367
0.0158819
0.0128254
0.00233585
0.000885273
0.00103569
0.00240665
0.00508005
0.00884853
0.0128089
0.0155367
0.0158819
0.0128254
0.00180487
0.00044135
0.000592766
0.00190362
0.00445153
0.00804658
0.0118611
0.0145787
0.0150814
0.0123396
0.000959719
-0.000219687
-5.46705e-05
0.00115497
0.00347484
0.00673111
0.0102796
0.0129426
0.0137068
0.0115583
0.000178476
-0.000724925
-0.000521201
0.000587433
0.00265821
0.00554469
0.00871145
0.0112292
0.0122421
0.0108362
7.54233e-06
-0.000482141
-0.000170318
0.000892715
0.00278121
0.00536803
0.00819245
0.0104915
0.0115619
0.0107058
0.000415809
-1.76552e-05
0.00031374
0.0012467
0.00288448
0.00517911
0.00776594
0.00997666
0.0110677
0.00992643
0.000954911
3.2361e-05
0.000281236
0.00120541
0.00287921
0.00526851
0.00799955
0.0103365
0.011388
0.00959157
0.00217529
0.00084268
0.00102174
0.00194114
0.00368313
0.00621997
0.009186
0.011601
0.0124463
0.00989791
0.00333473
0.00168775
0.00180366
0.00272081
0.00453645
0.00724166
0.0103782
0.0128227
0.0134595
0.0103601
0.00402537
0.00221065
0.00229082
0.00320665
0.00506414
0.00787044
0.0110936
0.0135399
0.0140528
0.0106804
0.00402539
0.00221067
0.00229084
0.00320666
0.00506414
0.00787044
0.0110936
0.0135399
0.0140528
0.0106804
0.0033348
0.00168781
0.00180371
0.00272085
0.00453648
0.00724168
0.0103782
0.0128227
0.0134595
0.0103601
0.00217543
0.000842782
0.00102182
0.00194119
0.00368317
0.00621999
0.00918601
0.011601
0.0124464
0.00989793
0.000955143
3.25117e-05
0.000281347
0.00120548
0.00287926
0.00526854
0.00799957
0.0103365
0.011388
0.00959156
0.000416198
-1.74434e-05
0.00031388
0.00124679
0.00288454
0.00517914
0.00776597
0.00997667
0.0110677
0.00992646
-0.000930955
-0.00149854
-0.00128953
-0.000562266
0.000895085
0.00320975
0.00616288
0.00906851
0.0108325
0.00952324
-6.92867e-05
-0.0012937
-0.00117048
-0.000446731
0.00105078
0.00348592
0.00663782
0.0097161
0.0114066
0.00894987
0.00167238
-0.000143073
-0.00015105
0.000475955
0.00194598
0.004481
0.00785222
0.0110617
0.0125534
0.00904904
0.00325981
0.000991732
0.000855966
0.00138745
0.00283903
0.00547983
0.00898207
0.0122397
0.0135293
0.00932395
0.00418372
0.00167424
0.00146321
0.00193849
0.00338045
0.00606948
0.00963456
0.0128966
0.0140671
0.00953632
0.00418373
0.00167426
0.00146323
0.0019385
0.00338045
0.00606947
0.00963456
0.0128966
0.0140671
0.00953632
0.00325986
0.000991775
0.000856006
0.00138748
0.00283906
0.00547985
0.00898209
0.0122397
0.0135293
0.00932396
0.00167247
-0.000142999
-0.000150987
0.000476002
0.00194602
0.00448102
0.00785223
0.0110617
0.0125534
0.00904902
-6.91418e-05
-0.0012936
-0.0011704
-0.000446671
0.00105082
0.00348595
0.00663784
0.00971612
0.0114067
0.00894986
-0.000930759
-0.00149841
-0.00128943
-0.000562198
0.000895132
0.00320978
0.0061629
0.00906853
0.0108325
0.00952328
-0.00442623
-0.00512139
-0.00508968
-0.00464402
-0.00338909
-0.00088953
0.00291754
0.00741012
0.0108754
0.00997953
-0.00324277
-0.00474565
-0.00480228
-0.00434212
-0.00301398
-0.000335754
0.00377437
0.00860014
0.0119958
0.00936372
-0.000972064
-0.0032466
-0.00354264
-0.00333601
-0.00220224
0.000490878
0.0047497
0.00983784
0.0131664
0.00936089
0.00105641
-0.00180683
-0.0023372
-0.00238126
-0.00144249
0.00117343
0.00555679
0.0107689
0.0139951
0.00949415
0.00222211
-0.000953677
-0.00162191
-0.00181181
-0.000980064
0.00159581
0.00599529
0.0112393
0.0144014
0.00960835
0.00222212
-0.000953666
-0.0016219
-0.0018118
-0.000980057
0.00159581
0.00599529
0.0112393
0.0144014
0.00960836
0.00105644
-0.0018068
-0.00233717
-0.00238123
-0.00144247
0.00117344
0.0055568
0.0107689
0.0139951
0.00949415
-0.000972006
-0.00324655
-0.00354259
-0.00333597
-0.00220221
0.000490892
0.0047497
0.00983783
0.0131664
0.00936089
-0.00324268
-0.00474557
-0.00480222
-0.00434208
-0.00301395
-0.000335732
0.00377439
0.00860017
0.0119958
0.00936375
-0.00442612
-0.0051213
-0.00508961
-0.00464397
-0.00338906
-0.000889508
0.00291756
0.00741014
0.0108754
0.00997957
-0.0107527
-0.0114037
-0.0114717
-0.0113211
-0.0103301
-0.00756789
-0.00240685
0.00484523
0.0116693
0.012869
-0.00929106
-0.0108748
-0.0110519
-0.0109053
-0.00984866
-0.00696412
-0.00150054
0.00630627
0.0132982
0.0126417
-0.00660574
-0.00912618
-0.0097205
-0.0100996
-0.00958146
-0.00702182
-0.00157073
0.00667603
0.0139894
0.0126471
-0.00425054
-0.00747754
-0.00846443
-0.00933139
-0.00928197
-0.00700736
-0.00165081
0.00681364
0.0143158
0.0126984
-0.00291375
-0.00651242
-0.00772472
-0.00886323
-0.00906683
-0.00697952
-0.00167873
0.00684981
0.0144206
0.0127282
-0.00291374
-0.00651242
-0.00772471
-0.00886322
-0.00906683
-0.00697952
-0.00167873
0.00684981
0.0144206
0.0127282
-0.00425051
-0.00747752
-0.00846441
-0.00933137
-0.00928196
-0.00700736
-0.00165081
0.00681365
0.0143158
0.0126984
-0.00660571
-0.00912614
-0.00972046
-0.0100996
-0.00958144
-0.00702181
-0.00157072
0.00667604
0.0139894
0.0126471
-0.00929101
-0.0108747
-0.0110518
-0.0109053
-0.00984864
-0.00696411
-0.00150053
0.00630631
0.0132982
0.0126417
-0.0107527
-0.0114036
-0.0114716
-0.0113211
-0.0103301
-0.00756787
-0.00240684
0.00484523
0.0116692
0.012869
-0.0205329
-0.0206015
-0.0204006
-0.0203897
-0.0196426
-0.0166437
-0.00974294
0.00159156
0.0144267
0.0210858
-0.0188254
-0.0199734
-0.0199662
-0.0200878
-0.0195386
-0.0168154
-0.0100928
0.00176584
0.0152531
0.0214403
-0.0158633
-0.0180948
-0.0187587
-0.0198149
-0.0203272
-0.0185592
-0.012338
4.22438e-05
0.0146166
0.0214543
-0.0133292
-0.0163513
-0.0176021
-0.019447
-0.0207973
-0.0197535
-0.0139008
-0.00127048
0.0139488
0.0213695
-0.0119141
-0.0153444
-0.0169194
-0.0191784
-0.020943
-0.0202171
-0.014596
-0.00190519
0.013579
0.021293
-0.0119141
-0.0153444
-0.0169194
-0.0191784
-0.020943
-0.0202171
-0.014596
-0.00190519
0.013579
0.021293
-0.0133292
-0.0163513
-0.0176021
-0.019447
-0.0207972
-0.0197535
-0.0139008
-0.00127047
0.0139488
0.0213695
-0.0158633
-0.0180948
-0.0187587
-0.0198149
-0.0203271
-0.0185592
-0.012338
4.22541e-05
0.0146166
0.0214543
-0.0188253
-0.0199734
-0.0199662
-0.0200878
-0.0195385
-0.0168154
-0.0100928
0.00176585
0.0152531
0.0214403
-0.0205329
-0.0206015
-0.0204006
-0.0203897
-0.0196426
-0.0166437
-0.00974293
0.00159158
0.0144267
0.0210858
-0.0348433
-0.0325934
-0.0311285
-0.0307114
-0.03006
-0.0269166
-0.0183648
-0.00175616
0.0201832
0.0389111
-0.0326918
-0.0318169
-0.0307829
-0.0308689
-0.0309779
-0.0289839
-0.0216915
-0.00526655
0.0178427
0.0390218
-0.0294344
-0.0297433
-0.0296825
-0.0311984
-0.0330429
-0.0328658
-0.0269037
-0.0101713
0.0147699
0.0388628
-0.0267782
-0.0278961
-0.0285975
-0.0311889
-0.034241
-0.0352216
-0.030043
-0.0131309
0.0128538
0.0387239
-0.0253352
-0.0268588
-0.0279624
-0.0310811
-0.0346847
-0.0361675
-0.0313355
-0.0143806
0.0120228
0.038642
-0.0253352
-0.0268588
-0.0279624
-0.0310811
-0.0346847
-0.0361675
-0.0313355
-0.0143806
0.0120228
0.038642
-0.0267782
-0.0278961
-0.0285974
-0.0311889
-0.034241
-0.0352216
-0.030043
-0.0131309
0.0128538
0.0387239
-0.0294344
-0.0297433
-0.0296824
-0.0311984
-0.0330429
-0.0328658
-0.0269037
-0.0101713
0.0147699
0.0388628
-0.0326917
-0.0318169
-0.0307828
-0.0308689
-0.0309779
-0.0289839
-0.0216915
-0.00526653
0.0178427
0.0390218
-0.0348433
-0.0325934
-0.0311285
-0.0307114
-0.03006
-0.0269166
-0.0183648
-0.00175614
0.0201832
0.0389111
-0.0574939
-0.0469478
-0.0421595
-0.0400756
-0.0389613
-0.0354605
-0.0256073
-0.0030825
0.0303179
0.0732221
-0.0542189
-0.0454788
-0.0415583
-0.0407574
-0.0412294
-0.0399734
-0.0330627
-0.0120817
0.0225519
0.0736835
-0.0500526
-0.0425524
-0.0398174
-0.0410087
-0.043869
-0.0450568
-0.0402335
-0.019159
0.0178332
0.0751249
-0.0469601
-0.040219
-0.0383102
-0.0407911
-0.0451432
-0.0477074
-0.0439477
-0.0225631
0.0158506
0.0764823
-0.0453751
-0.0389977
-0.0375077
-0.0405793
-0.0455595
-0.048665
-0.0453444
-0.0238073
0.015218
0.0771394
-0.0453751
-0.0389977
-0.0375077
-0.0405793
-0.0455595
-0.048665
-0.0453444
-0.0238073
0.015218
0.0771395
-0.0469601
-0.040219
-0.0383102
-0.0407911
-0.0451432
-0.0477074
-0.0439477
-0.0225631
0.0158506
0.0764823
-0.0500526
-0.0425524
-0.0398174
-0.0410087
-0.043869
-0.0450568
-0.0402335
-0.019159
0.0178332
0.0751249
-0.0542189
-0.0454788
-0.0415583
-0.0407574
-0.0412294
-0.0399734
-0.0330627
-0.0120817
0.0225519
0.0736835
-0.0574939
-0.0469478
-0.0421595
-0.0400756
-0.0389613
-0.0354605
-0.0256073
-0.00308248
0.0303179
0.0732221
-0.0890122
-0.0611886
-0.0519204
-0.0462903
-0.0435548
-0.0389868
-0.0263212
0.00469496
0.0516611
0.150883
-0.0813389
-0.0572255
-0.0504991
-0.0472921
-0.0469309
-0.0451027
-0.036162
-0.00609287
0.0452903
0.162526
-0.074927
-0.0524009
-0.047236
-0.0465591
-0.0491327
-0.0499622
-0.0430921
-0.0113925
0.0463384
0.171588
-0.0709294
-0.0491033
-0.0448308
-0.045679
-0.049955
-0.0522523
-0.0462031
-0.0132084
0.047645
0.177295
-0.0690829
-0.0475247
-0.043672
-0.0451948
-0.0501765
-0.0530571
-0.0472949
-0.0137789
0.0483641
0.179776
-0.0690829
-0.0475247
-0.043672
-0.0451948
-0.0501765
-0.0530571
-0.0472949
-0.0137789
0.0483641
0.179776
-0.0709294
-0.0491033
-0.0448308
-0.045679
-0.049955
-0.0522523
-0.0462031
-0.0132084
0.047645
0.177295
-0.074927
-0.0524009
-0.047236
-0.0465591
-0.0491327
-0.0499622
-0.0430921
-0.0113925
0.0463384
0.171588
-0.0813389
-0.0572255
-0.0504991
-0.0472921
-0.0469308
-0.0451027
-0.036162
-0.00609287
0.0452903
0.162526
-0.0890121
-0.0611886
-0.0519203
-0.0462903
-0.0435548
-0.0389868
-0.0263212
0.00469496
0.0516612
0.150883
-0.199263
-0.0738597
-0.0488431
-0.0403725
-0.0360786
-0.0293241
-0.0124202
0.0328035
0.119035
0.324664
-0.18696
-0.0611236
-0.0410263
-0.03698
-0.0363535
-0.0329323
-0.0184276
0.0296282
0.129539
0.359299
-0.178052
-0.0521859
-0.0343577
-0.0334
-0.0359712
-0.0349342
-0.021415
0.0297363
0.138859
0.380165
-0.172905
-0.0471236
-0.0303171
-0.0310831
-0.0354894
-0.0357682
-0.0225733
0.0302181
0.143481
0.390195
-0.170644
-0.0449448
-0.0285644
-0.0300576
-0.0352376
-0.0360768
-0.0230146
0.0304287
0.145243
0.394016
-0.170644
-0.0449448
-0.0285644
-0.0300576
-0.0352376
-0.0360768
-0.0230146
0.0304286
0.145243
0.394016
-0.172905
-0.0471236
-0.0303171
-0.0310831
-0.0354894
-0.0357682
-0.0225733
0.0302181
0.143481
0.390195
-0.178052
-0.0521859
-0.0343577
-0.0333999
-0.0359712
-0.0349342
-0.0214149
0.0297363
0.138859
0.380165
-0.18696
-0.0611236
-0.0410263
-0.03698
-0.0363535
-0.0329323
-0.0184276
0.0296282
0.129539
0.359299
-0.199263
-0.0738597
-0.0488431
-0.0403725
-0.0360785
-0.0293241
-0.0124202
0.0328035
0.119035
0.324664
)
;

boundaryField
{
    top
    {
        type            zeroGradient;
    }
    others
    {
        type            zeroGradient;
    }
}


// ************************************************************************* //
