/*--------------------------------*- C++ -*----------------------------------*\
  =========                 |
  \\      /  F ield         | OpenFOAM: The Open Source CFD Toolbox
   \\    /   O peration     | Website:  https://openfoam.org
    \\  /    A nd           | Version:  9
     \\/     M anipulation  |
\*---------------------------------------------------------------------------*/
FoamFile
{
    format      ascii;
    class       volVectorField;
    location    "0.78";
    object      U;
}
// * * * * * * * * * * * * * * * * * * * * * * * * * * * * * * * * * * * * * //

dimensions      [0 1 -1 0 0 0 0];

internalField   nonuniform List<vector> 
1000
(
(2.82243e-05 -0.000510836 0.000340655)
(-0.00140552 -0.000478213 0.00107626)
(-0.00458014 -0.000435558 0.00143539)
(-0.00797308 -0.000545768 0.00159274)
(-0.0108846 -0.000854398 0.0015612)
(-0.012352 -0.00132205 0.00124908)
(-0.0114345 -0.00178525 0.000644243)
(-0.00787669 -0.00195312 -2.38392e-05)
(-0.00262719 -0.00155486 -0.000221559)
(0.000110872 -0.000465507 0.000376414)
(-0.000152907 -0.00181339 0.000596528)
(-0.00344226 -0.00224199 0.00230695)
(-0.0101561 -0.00232767 0.0030651)
(-0.0170587 -0.00266437 0.00316442)
(-0.0226549 -0.00342871 0.00267607)
(-0.0251567 -0.00451751 0.00150272)
(-0.0229295 -0.00550917 -0.000215838)
(-0.0156737 -0.00570073 -0.00174702)
(-0.00545325 -0.00451172 -0.00176832)
(-8.20315e-06 -0.00166797 0.000232959)
(-0.000352495 -0.00272056 0.000286379)
(-0.00499735 -0.00382645 0.00235718)
(-0.0140796 -0.00415251 0.00325545)
(-0.0231832 -0.00460565 0.00320994)
(-0.0302861 -0.00546539 0.0022881)
(-0.0330993 -0.00661139 0.000419004)
(-0.0296184 -0.00750238 -0.00209326)
(-0.0196816 -0.00743377 -0.00401219)
(-0.00628848 -0.00586326 -0.00347315)
(0.000349082 -0.00249138 -4.8459e-05)
(-0.000498054 -0.0023091 -0.000129951)
(-0.00606556 -0.00339114 0.00199933)
(-0.0167124 -0.00372664 0.00291698)
(-0.0272116 -0.00409137 0.0027406)
(-0.035184 -0.00472319 0.00150855)
(-0.0379704 -0.00552657 -0.000822014)
(-0.0334049 -0.00606611 -0.0038045)
(-0.0216011 -0.00588173 -0.00583408)
(-0.00623534 -0.00463563 -0.00472564)
(0.000825793 -0.0020864 -0.000243586)
(-0.00057706 -0.000892522 -0.000389914)
(-0.00661767 -0.00133237 0.00172326)
(-0.0180497 -0.00147057 0.00263204)
(-0.0292279 -0.00160665 0.00238156)
(-0.0375858 -0.00183097 0.000988203)
(-0.0402916 -0.00210674 -0.00157475)
(-0.0351152 -0.00228416 -0.00475335)
(-0.0223448 -0.00219478 -0.00678515)
(-0.00603988 -0.00173076 -0.00534442)
(0.00112723 -0.000798628 -0.000331879)
(-0.000577056 0.000892439 -0.00038991)
(-0.00661767 0.0013323 0.00172327)
(-0.0180497 0.00147052 0.00263204)
(-0.0292279 0.00160661 0.00238156)
(-0.0375858 0.00183094 0.000988204)
(-0.0402916 0.00210672 -0.00157475)
(-0.0351152 0.00228415 -0.00475335)
(-0.0223448 0.00219478 -0.00678515)
(-0.00603988 0.00173075 -0.00534442)
(0.00112723 0.000798621 -0.000331879)
(-0.000498038 0.00230899 -0.000129936)
(-0.00606553 0.00339105 0.00199934)
(-0.0167124 0.00372658 0.00291698)
(-0.0272116 0.00409133 0.00274061)
(-0.035184 0.00472316 0.00150855)
(-0.0379704 0.00552655 -0.000822012)
(-0.0334049 0.00606609 -0.0038045)
(-0.0216011 0.00588172 -0.00583408)
(-0.00623534 0.00463562 -0.00472564)
(0.000825793 0.00208639 -0.000243586)
(-0.000352451 0.00272036 0.000286421)
(-0.00499728 0.00382634 0.0023572)
(-0.0140795 0.00415244 0.00325546)
(-0.0231832 0.00460561 0.00320995)
(-0.030286 0.00546537 0.0022881)
(-0.0330992 0.00661138 0.000419006)
(-0.0296184 0.00750237 -0.00209326)
(-0.0196816 0.00743376 -0.00401219)
(-0.00628848 0.00586326 -0.00347315)
(0.000349083 0.00249138 -4.8458e-05)
(-0.000152785 0.00181288 0.000596643)
(-0.00344207 0.00224182 0.002307)
(-0.010156 0.0023276 0.00306512)
(-0.0170586 0.00266433 0.00316443)
(-0.0226549 0.00342869 0.00267608)
(-0.0251567 0.0045175 0.00150272)
(-0.0229295 0.00550917 -0.000215837)
(-0.0156737 0.00570072 -0.00174702)
(-0.00545324 0.00451171 -0.00176831)
(-8.20152e-06 0.00166797 0.000232961)
(2.86179e-05 0.000510464 0.000341046)
(-0.00140501 0.000478115 0.00107636)
(-0.00457997 0.000435523 0.00143543)
(-0.007973 0.000545753 0.00159276)
(-0.0108845 0.000854391 0.0015612)
(-0.0123519 0.00132205 0.00124909)
(-0.0114345 0.00178524 0.000644245)
(-0.00787668 0.00195312 -2.38383e-05)
(-0.00262719 0.00155485 -0.000221559)
(0.000110874 0.000465505 0.000376414)
(-0.000625973 -0.00145773 0.00346033)
(-0.00410369 -0.00187862 0.00694623)
(-0.010152 -0.00191786 0.00831332)
(-0.0163856 -0.00194942 0.00851311)
(-0.0216209 -0.0021268 0.00764511)
(-0.0242852 -0.00247072 0.00547543)
(-0.022822 -0.00282598 0.0021216)
(-0.0165818 -0.00284248 -0.0013532)
(-0.0068085 -0.00208815 -0.00277305)
(-0.000656182 -0.000318058 -0.000512315)
(-0.00195993 -0.00431924 0.00578504)
(-0.0108452 -0.00608529 0.0132014)
(-0.0252551 -0.00638634 0.0158528)
(-0.0393565 -0.00649801 0.0152823)
(-0.0502871 -0.00692379 0.0118504)
(-0.054937 -0.00768894 0.00547267)
(-0.0506129 -0.00838811 -0.00290832)
(-0.0365412 -0.0081431 -0.010167)
(-0.0157763 -0.00607844 -0.011101)
(-0.00214875 -0.00164588 -0.00290897)
(-0.00303829 -0.0057629 0.00559388)
(-0.0160222 -0.00868177 0.0143838)
(-0.0363802 -0.00927034 0.0172855)
(-0.0555629 -0.00940219 0.0156664)
(-0.0695878 -0.00980612 0.00993014)
(-0.0745859 -0.0105005 0.000267426)
(-0.0674706 -0.0109694 -0.0114535)
(-0.0477899 -0.0103514 -0.0203638)
(-0.0201202 -0.00786258 -0.0192144)
(-0.00252558 -0.00285344 -0.00517334)
(-0.00375534 -0.00466581 0.00472452)
(-0.0195097 -0.00723975 0.013717)
(-0.0437969 -0.00777645 0.01645)
(-0.0660894 -0.0078538 0.0139286)
(-0.081701 -0.00808122 0.00653161)
(-0.0863554 -0.00847576 -0.0052606)
(-0.0769382 -0.00861133 -0.0188582)
(-0.0535452 -0.00800128 -0.0282152)
(-0.0218032 -0.00614581 -0.0249645)
(-0.00236227 -0.00248603 -0.00667789)
(-0.00411089 -0.00176897 0.00410807)
(-0.0212632 -0.00277668 0.0130197)
(-0.0475092 -0.00298784 0.0155788)
(-0.0712709 -0.00300792 0.0125521)
(-0.0875211 -0.00306992 0.0043034)
(-0.0918157 -0.003183 -0.00849431)
(-0.0811199 -0.0031924 -0.022859)
(-0.0558934 -0.00294633 -0.0322216)
(-0.0223004 -0.00227787 -0.0277677)
(-0.002172 -0.000964845 -0.00737813)
(-0.00411089 0.0017689 0.00410808)
(-0.0212631 0.00277662 0.0130197)
(-0.0475092 0.00298779 0.0155788)
(-0.0712709 0.00300788 0.0125521)
(-0.0875211 0.00306989 0.0043034)
(-0.0918157 0.00318299 -0.00849431)
(-0.0811199 0.00319239 -0.022859)
(-0.0558934 0.00294632 -0.0322216)
(-0.0223004 0.00227787 -0.0277677)
(-0.002172 0.000964838 -0.00737813)
(-0.00375533 0.00466572 0.00472455)
(-0.0195096 0.00723968 0.013717)
(-0.0437969 0.0077764 0.01645)
(-0.0660894 0.00785377 0.0139287)
(-0.081701 0.0080812 0.00653161)
(-0.0863554 0.00847575 -0.0052606)
(-0.0769382 0.00861132 -0.0188582)
(-0.0535452 0.00800127 -0.0282152)
(-0.0218032 0.00614581 -0.0249645)
(-0.00236227 0.00248602 -0.00667789)
(-0.00303827 0.00576278 0.00559395)
(-0.0160221 0.00868169 0.0143839)
(-0.0363802 0.00927029 0.0172855)
(-0.0555628 0.00940216 0.0156664)
(-0.0695878 0.00980609 0.00993014)
(-0.0745858 0.0105004 0.000267431)
(-0.0674706 0.0109694 -0.0114535)
(-0.0477899 0.0103514 -0.0203638)
(-0.0201202 0.00786257 -0.0192144)
(-0.00252558 0.00285344 -0.00517334)
(-0.00195988 0.00431908 0.00578522)
(-0.0108451 0.0060852 0.0132014)
(-0.025255 0.0063863 0.0158528)
(-0.0393565 0.00649799 0.0152823)
(-0.050287 0.00692378 0.0118504)
(-0.054937 0.00768893 0.00547267)
(-0.0506129 0.0083881 -0.00290832)
(-0.0365412 0.0081431 -0.010167)
(-0.0157763 0.00607844 -0.011101)
(-0.00214874 0.00164587 -0.00290897)
(-0.000625871 0.00145763 0.00346084)
(-0.00410353 0.00187857 0.00694639)
(-0.0101519 0.00191783 0.00831339)
(-0.0163855 0.00194941 0.00851314)
(-0.0216208 0.0021268 0.00764513)
(-0.0242852 0.00247071 0.00547544)
(-0.022822 0.00282597 0.0021216)
(-0.0165817 0.00284248 -0.0013532)
(-0.00680849 0.00208815 -0.00277305)
(-0.000656181 0.000318056 -0.000512315)
(-0.00109921 -0.00227097 0.0101214)
(-0.00597812 -0.0030075 0.0181414)
(-0.0138767 -0.00299123 0.0207665)
(-0.0219868 -0.0027733 0.0205296)
(-0.0291656 -0.0026369 0.017777)
(-0.033629 -0.00272485 0.0121189)
(-0.0331737 -0.00296233 0.0038085)
(-0.0260429 -0.00300426 -0.00498222)
(-0.0125806 -0.00222435 -0.00941131)
(-0.00218137 -5.15169e-05 -0.00465758)
(-0.00346705 -0.00642226 0.0168948)
(-0.0167341 -0.00905477 0.0332976)
(-0.0367623 -0.00909554 0.0380705)
(-0.055999 -0.00836338 0.0353948)
(-0.0712866 -0.00774721 0.0262912)
(-0.079027 -0.00759599 0.0108379)
(-0.0754893 -0.00773921 -0.00898214)
(-0.0581485 -0.00750346 -0.0268641)
(-0.0286514 -0.00567636 -0.0312772)
(-0.00546105 -0.000951214 -0.0130994)
(-0.00540481 -0.00822253 0.0180044)
(-0.0252554 -0.0122217 0.0372669)
(-0.0541949 -0.0123359 0.0420811)
(-0.0806526 -0.0111794 0.0365829)
(-0.100115 -0.00999754 0.0220803)
(-0.108222 -0.00922424 -0.000597522)
(-0.101024 -0.00875122 -0.0275251)
(-0.0762594 -0.00816276 -0.0493232)
(-0.0368951 -0.00640956 -0.0501956)
(-0.00675351 -0.00196789 -0.0196333)
(-0.0067128 -0.00649869 0.0173524)
(-0.0310372 -0.00990047 0.0370651)
(-0.0658231 -0.00998217 0.0411741)
(-0.0965184 -0.00892312 0.0333628)
(-0.117809 -0.00775198 0.0151415)
(-0.125132 -0.00682322 -0.0118842)
(-0.114835 -0.00614915 -0.0424832)
(-0.0853166 -0.00562128 -0.0653603)
(-0.0404717 -0.00456218 -0.0626485)
(-0.00702677 -0.00172817 -0.0236641)
(-0.00736301 -0.00243527 0.0166962)
(-0.0339324 -0.00374529 0.0362662)
(-0.0715902 -0.00376958 0.0398273)
(-0.104196 -0.00334101 0.0307558)
(-0.126071 -0.00285251 0.0107042)
(-0.132679 -0.00244142 -0.0182374)
(-0.120679 -0.00214232 -0.0501991)
(-0.0889143 -0.00194416 -0.0731396)
(-0.0417251 -0.001612 -0.0684365)
(-0.00701987 -0.000669242 -0.0254687)
(-0.00736301 0.00243522 0.0166963)
(-0.0339324 0.00374525 0.0362662)
(-0.0715901 0.00376954 0.0398273)
(-0.104196 0.00334098 0.0307558)
(-0.126071 0.00285249 0.0107042)
(-0.132679 0.00244141 -0.0182374)
(-0.120679 0.00214231 -0.0501991)
(-0.0889143 0.00194415 -0.0731396)
(-0.0417251 0.00161199 -0.0684365)
(-0.00701987 0.000669235 -0.0254687)
(-0.00671279 0.00649863 0.0173524)
(-0.0310372 0.00990042 0.0370651)
(-0.0658231 0.00998213 0.0411741)
(-0.0965183 0.00892309 0.0333628)
(-0.117809 0.00775196 0.0151415)
(-0.125132 0.0068232 -0.0118842)
(-0.114835 0.00614914 -0.0424832)
(-0.0853166 0.00562127 -0.0653603)
(-0.0404717 0.00456217 -0.0626485)
(-0.00702677 0.00172816 -0.023664)
(-0.00540479 0.00822247 0.0180045)
(-0.0252554 0.0122217 0.0372669)
(-0.0541948 0.0123359 0.0420812)
(-0.0806525 0.0111794 0.0365829)
(-0.100115 0.00999752 0.0220803)
(-0.108222 0.00922422 -0.000597516)
(-0.101024 0.00875121 -0.0275251)
(-0.0762594 0.00816275 -0.0493232)
(-0.0368951 0.00640956 -0.0501956)
(-0.00675351 0.00196789 -0.0196333)
(-0.00346703 0.00642219 0.0168949)
(-0.0167341 0.00905472 0.0332976)
(-0.0367623 0.00909551 0.0380706)
(-0.0559989 0.00836337 0.0353948)
(-0.0712865 0.0077472 0.0262912)
(-0.079027 0.00759598 0.0108379)
(-0.0754893 0.0077392 -0.00898213)
(-0.0581485 0.00750345 -0.0268641)
(-0.0286513 0.00567636 -0.0312772)
(-0.00546105 0.00095121 -0.0130994)
(-0.00109918 0.00227094 0.0101216)
(-0.00597806 0.00300748 0.0181415)
(-0.0138767 0.00299122 0.0207666)
(-0.0219867 0.00277329 0.0205297)
(-0.0291656 0.0026369 0.017777)
(-0.033629 0.00272484 0.012119)
(-0.0331737 0.00296233 0.0038085)
(-0.0260429 0.00300426 -0.00498222)
(-0.0125806 0.00222435 -0.00941131)
(-0.00218137 5.15147e-05 -0.00465758)
(-0.00146583 -0.00297964 0.0189134)
(-0.0073055 -0.00387144 0.0322409)
(-0.0164049 -0.00359337 0.0358871)
(-0.0259702 -0.00287566 0.0347805)
(-0.0353574 -0.0021651 0.0297102)
(-0.0428655 -0.00178658 0.0199228)
(-0.045479 -0.00187455 0.00530808)
(-0.0393984 -0.00224571 -0.0112216)
(-0.0225661 -0.00198142 -0.0213176)
(-0.00548071 0.000130758 -0.013647)
(-0.00467174 -0.00822942 0.0316272)
(-0.0212607 -0.0112433 0.0586445)
(-0.0454149 -0.0103811 0.06513)
(-0.0687161 -0.0079792 0.0594158)
(-0.088598 -0.0054165 0.0435608)
(-0.101538 -0.00360375 0.0174484)
(-0.10251 -0.00296505 -0.0168846)
(-0.0856433 -0.0035063 -0.0505737)
(-0.0486376 -0.00353234 -0.0636468)
(-0.0117671 -0.000170642 -0.0330749)
(-0.00729693 -0.0102841 0.0348463)
(-0.0324575 -0.0146763 0.0665769)
(-0.0677881 -0.0133955 0.0727672)
(-0.0997888 -0.0097402 0.0622803)
(-0.124564 -0.00563898 0.0379308)
(-0.137967 -0.00234813 0.000771676)
(-0.135001 -0.000752758 -0.0447653)
(-0.109969 -0.00126254 -0.0857633)
(-0.0614313 -0.0023354 -0.095582)
(-0.0144486 -0.000672059 -0.0459053)
(-0.00906733 -0.00799327 0.0349644)
(-0.0400155 -0.0116353 0.0675846)
(-0.0825194 -0.0104846 0.072463)
(-0.119256 -0.00727326 0.058298)
(-0.145626 -0.0036144 0.0285475)
(-0.157715 -0.000585456 -0.0145748)
(-0.15117 0.000864894 -0.065069)
(-0.121089 0.000355369 -0.108148)
(-0.0668518 -0.00097148 -0.114322)
(-0.0153762 -0.000572355 -0.0530186)
(-0.00994105 -0.00296929 0.034569)
(-0.0437556 -0.00435294 0.0670837)
(-0.0896911 -0.00389089 0.0710215)
(-0.128398 -0.00262628 0.0549359)
(-0.155017 -0.00118375 0.0227149)
(-0.165951 1.10654e-05 -0.0227418)
(-0.157455 0.000578889 -0.0748101)
(-0.125171 0.000351475 -0.118146)
(-0.0687714 -0.000225553 -0.122358)
(-0.0156546 -0.000215451 -0.0559856)
(-0.00994105 0.00296925 0.034569)
(-0.0437556 0.00435291 0.0670837)
(-0.0896911 0.00389086 0.0710215)
(-0.128398 0.00262625 0.0549359)
(-0.155017 0.00118373 0.0227149)
(-0.165951 -1.10769e-05 -0.0227418)
(-0.157455 -0.000578897 -0.0748101)
(-0.125171 -0.000351482 -0.118146)
(-0.0687714 0.000225546 -0.122358)
(-0.0156546 0.000215445 -0.0559856)
(-0.00906733 0.00799323 0.0349644)
(-0.0400155 0.0116353 0.0675846)
(-0.0825194 0.0104845 0.072463)
(-0.119255 0.00727324 0.058298)
(-0.145626 0.00361439 0.0285475)
(-0.157715 0.000585445 -0.0145748)
(-0.15117 -0.000864902 -0.065069)
(-0.121089 -0.000355375 -0.108148)
(-0.0668518 0.000971475 -0.114322)
(-0.0153762 0.000572351 -0.0530186)
(-0.00729693 0.0102841 0.0348464)
(-0.0324575 0.0146763 0.0665769)
(-0.0677881 0.0133955 0.0727672)
(-0.0997888 0.00974018 0.0622803)
(-0.124564 0.00563897 0.0379308)
(-0.137967 0.00234812 0.000771683)
(-0.135001 0.00075275 -0.0447653)
(-0.109969 0.00126254 -0.0857633)
(-0.0614313 0.0023354 -0.095582)
(-0.0144486 0.000672055 -0.0459053)
(-0.00467173 0.00822939 0.0316273)
(-0.0212606 0.0112433 0.0586446)
(-0.0454148 0.010381 0.06513)
(-0.068716 0.00797919 0.0594158)
(-0.088598 0.00541649 0.0435609)
(-0.101538 0.00360374 0.0174484)
(-0.10251 0.00296505 -0.0168846)
(-0.0856433 0.0035063 -0.0505737)
(-0.0486376 0.00353234 -0.0636468)
(-0.0117671 0.000170639 -0.0330749)
(-0.00146582 0.00297963 0.0189135)
(-0.00730548 0.00387142 0.0322409)
(-0.0164048 0.00359336 0.0358872)
(-0.0259702 0.00287566 0.0347805)
(-0.0353574 0.0021651 0.0297102)
(-0.0428655 0.00178658 0.0199228)
(-0.045479 0.00187455 0.00530809)
(-0.0393984 0.00224571 -0.0112216)
(-0.0225661 0.00198142 -0.0213176)
(-0.00548071 -0.000130759 -0.013647)
(-0.00199637 -0.00353103 0.0296284)
(-0.00855581 -0.00437996 0.048347)
(-0.0180137 -0.00356317 0.0522911)
(-0.0282661 -0.00197822 0.049711)
(-0.0397838 -0.000261982 0.042016)
(-0.0515033 0.00104643 0.0278324)
(-0.0596692 0.0013756 0.0058319)
(-0.0576122 0.000422401 -0.0212914)
(-0.0391524 -0.000754629 -0.0414019)
(-0.0120719 3.73906e-05 -0.0315461)
(-0.00587824 -0.00956834 0.049403)
(-0.0247922 -0.0124057 0.0876846)
(-0.0510854 -0.00986334 0.0950553)
(-0.0766538 -0.00474874 0.0856445)
(-0.10052 0.000966978 0.0629037)
(-0.120108 0.00558704 0.0258347)
(-0.129291 0.00744376 -0.0251)
(-0.11795 0.00526359 -0.0803896)
(-0.0778878 0.0010053 -0.111122)
(-0.0231723 0.000110718 -0.0696401)
(-0.00890627 -0.011714 0.0552645)
(-0.037579 -0.0157688 0.10048)
(-0.0762747 -0.0121004 0.107441)
(-0.111021 -0.00465813 0.0918021)
(-0.139674 0.00369864 0.0583538)
(-0.159345 0.0104305 0.00746801)
(-0.164285 0.0131507 -0.0582437)
(-0.144893 0.0101363 -0.125166)
(-0.0941223 0.00372007 -0.156077)
(-0.0275705 0.000205888 -0.0913268)
(-0.010894 -0.00896939 0.0565153)
(-0.0460129 -0.0122671 0.103296)
(-0.0923681 -0.00912037 0.108594)
(-0.131562 -0.00281718 0.0885193)
(-0.160953 0.0041755 0.0490194)
(-0.178229 0.00965278 -0.00820697)
(-0.179013 0.0115526 -0.0793822)
(-0.155068 0.00878054 -0.14972)
(-0.100194 0.00344024 -0.178975)
(-0.0292491 0.000227044 -0.101998)
(-0.0118526 -0.00330518 0.0565818)
(-0.0500896 -0.0045429 0.103419)
(-0.0999636 -0.00331556 0.107546)
(-0.140756 -0.000883274 0.0852716)
(-0.169723 0.00178924 0.0432695)
(-0.185214 0.00383982 -0.016059)
(-0.18386 0.00446067 -0.0885894)
(-0.15821 0.00333936 -0.159584)
(-0.102239 0.00132738 -0.187916)
(-0.0298685 9.90449e-05 -0.106145)
(-0.0118526 0.00330515 0.0565818)
(-0.0500896 0.00454288 0.103419)
(-0.0999636 0.00331553 0.107546)
(-0.140756 0.000883255 0.0852716)
(-0.169723 -0.00178926 0.0432695)
(-0.185214 -0.00383982 -0.016059)
(-0.18386 -0.00446067 -0.0885894)
(-0.15821 -0.00333936 -0.159584)
(-0.102239 -0.00132739 -0.187916)
(-0.0298685 -9.90508e-05 -0.106145)
(-0.010894 0.00896937 0.0565153)
(-0.0460129 0.012267 0.103296)
(-0.092368 0.00912035 0.108594)
(-0.131562 0.00281716 0.0885193)
(-0.160953 -0.00417551 0.0490194)
(-0.178229 -0.00965279 -0.00820697)
(-0.179013 -0.0115526 -0.0793822)
(-0.155068 -0.00878054 -0.14972)
(-0.100194 -0.00344025 -0.178975)
(-0.0292491 -0.000227048 -0.101998)
(-0.00890627 0.011714 0.0552645)
(-0.037579 0.0157687 0.10048)
(-0.0762747 0.0121003 0.107441)
(-0.111021 0.00465811 0.0918021)
(-0.139674 -0.00369865 0.0583538)
(-0.159345 -0.0104305 0.00746802)
(-0.164285 -0.0131507 -0.0582437)
(-0.144893 -0.0101363 -0.125166)
(-0.0941223 -0.00372007 -0.156077)
(-0.0275705 -0.00020589 -0.0913268)
(-0.00587824 0.00956833 0.0494031)
(-0.0247922 0.0124057 0.0876847)
(-0.0510853 0.00986333 0.0950553)
(-0.0766538 0.00474873 0.0856445)
(-0.10052 -0.000966985 0.0629037)
(-0.120108 -0.00558705 0.0258347)
(-0.129291 -0.00744377 -0.0251)
(-0.11795 -0.00526359 -0.0803896)
(-0.0778878 -0.0010053 -0.111122)
(-0.0231723 -0.000110717 -0.0696401)
(-0.00199637 0.00353102 0.0296285)
(-0.0085558 0.00437996 0.048347)
(-0.0180137 0.00356316 0.0522912)
(-0.0282661 0.00197822 0.049711)
(-0.0397837 0.000261979 0.042016)
(-0.0515032 -0.00104643 0.0278324)
(-0.0596692 -0.0013756 0.00583191)
(-0.0576122 -0.000422402 -0.0212914)
(-0.0391524 0.00075463 -0.0414019)
(-0.0120719 -3.73888e-05 -0.0315461)
(-0.00331573 -0.0039561 0.0424542)
(-0.0107213 -0.00451912 0.0651177)
(-0.0190543 -0.00283401 0.0676306)
(-0.0281929 5.4501e-05 0.0624949)
(-0.040506 0.00338119 0.0519259)
(-0.0564507 0.00633116 0.0336547)
(-0.0723065 0.00774338 0.00424999)
(-0.0783744 0.00624976 -0.0358538)
(-0.0626462 0.00249756 -0.0715452)
(-0.0228798 -0.000321645 -0.0639109)
(-0.00782289 -0.0104535 0.0699056)
(-0.0281888 -0.012507 0.118096)
(-0.0532965 -0.00751117 0.124513)
(-0.0770924 0.00128453 0.11075)
(-0.101415 0.0113174 0.0819962)
(-0.125895 0.0199555 0.0357928)
(-0.14466 0.0238242 -0.0307885)
(-0.144214 0.0193967 -0.111496)
(-0.11046 0.00819278 -0.171483)
(-0.0388581 -0.000801602 -0.130729)
(-0.0108635 -0.0124889 0.0784046)
(-0.0410046 -0.0155376 0.136079)
(-0.0782506 -0.00871272 0.1426)
(-0.110192 0.00334716 0.122307)
(-0.137645 0.0166882 0.0823337)
(-0.160295 0.0273595 0.0215417)
(-0.173386 0.0309753 -0.0615843)
(-0.165103 0.0242025 -0.158023)
(-0.124343 0.0100845 -0.224867)
(-0.0436215 -0.000483938 -0.163398)
(-0.0127308 -0.00940341 0.0807529)
(-0.0490768 -0.0118814 0.140909)
(-0.093406 -0.00626851 0.145982)
(-0.128591 0.00353273 0.121484)
(-0.155127 0.0140447 0.0761168)
(-0.173746 0.0218605 0.00991489)
(-0.181821 0.0236572 -0.0783149)
(-0.16971 0.0176451 -0.179517)
(-0.128017 0.00706963 -0.248341)
(-0.0453913 -0.000189087 -0.177841)
(-0.0135921 -0.00343456 0.0812713)
(-0.0528349 -0.00435906 0.141771)
(-0.10024 -0.00221924 0.145745)
(-0.136271 0.00148016 0.119274)
(-0.161497 0.00536934 0.0719764)
(-0.177541 0.00812249 0.00443084)
(-0.183292 0.00857782 -0.084763)
(-0.17024 0.00622277 -0.187213)
(-0.129133 0.00243489 -0.256824)
(-0.0461452 -3.51564e-05 -0.183226)
(-0.0135921 0.00343454 0.0812713)
(-0.0528349 0.00435904 0.141771)
(-0.10024 0.00221922 0.145745)
(-0.136271 -0.00148017 0.119274)
(-0.161497 -0.00536935 0.0719764)
(-0.177541 -0.00812249 0.00443084)
(-0.183292 -0.00857783 -0.084763)
(-0.17024 -0.00622277 -0.187213)
(-0.129133 -0.0024349 -0.256824)
(-0.0461452 3.51508e-05 -0.183226)
(-0.0127308 0.00940339 0.0807529)
(-0.0490767 0.0118813 0.140909)
(-0.0934059 0.00626849 0.145982)
(-0.128591 -0.00353274 0.121484)
(-0.155127 -0.0140447 0.0761168)
(-0.173746 -0.0218605 0.00991489)
(-0.181821 -0.0236572 -0.0783149)
(-0.16971 -0.0176451 -0.179517)
(-0.128017 -0.00706963 -0.248341)
(-0.0453913 0.000189083 -0.177841)
(-0.0108635 0.0124889 0.0784046)
(-0.0410046 0.0155375 0.136079)
(-0.0782506 0.00871271 0.1426)
(-0.110192 -0.00334717 0.122307)
(-0.137645 -0.0166882 0.0823337)
(-0.160295 -0.0273595 0.0215417)
(-0.173386 -0.0309753 -0.0615843)
(-0.165103 -0.0242025 -0.158023)
(-0.124343 -0.0100845 -0.224867)
(-0.0436215 0.000483937 -0.163398)
(-0.00782289 0.0104535 0.0699056)
(-0.0281888 0.012507 0.118096)
(-0.0532965 0.00751116 0.124513)
(-0.0770924 -0.00128453 0.11075)
(-0.101415 -0.0113174 0.0819962)
(-0.125895 -0.0199555 0.0357928)
(-0.14466 -0.0238243 -0.0307885)
(-0.144214 -0.0193967 -0.111496)
(-0.11046 -0.00819278 -0.171483)
(-0.0388581 0.000801604 -0.130729)
(-0.00331572 0.00395609 0.0424543)
(-0.0107213 0.00451911 0.0651178)
(-0.0190543 0.00283401 0.0676306)
(-0.0281929 -5.45034e-05 0.0624949)
(-0.040506 -0.0033812 0.0519259)
(-0.0564506 -0.00633117 0.0336547)
(-0.0723065 -0.00774338 0.00425)
(-0.0783744 -0.00624976 -0.0358538)
(-0.0626462 -0.00249756 -0.0715452)
(-0.0228798 0.000321647 -0.0639109)
(-0.0070541 -0.004593 0.0594359)
(-0.0161955 -0.00470564 0.0810163)
(-0.0200933 -0.00188186 0.0785792)
(-0.024144 0.00261954 0.0689536)
(-0.0333861 0.00792455 0.05521)
(-0.0507525 0.0131 0.0339072)
(-0.0743753 0.0163242 -0.00105115)
(-0.0924426 0.0146393 -0.0543255)
(-0.087705 0.00728556 -0.110711)
(-0.0362122 -0.00137387 -0.117419)
(-0.012624 -0.0115005 0.0947983)
(-0.0342506 -0.0124 0.146853)
(-0.0520538 -0.00455992 0.148108)
(-0.0660947 0.00811659 0.128722)
(-0.0821713 0.0226154 0.0957224)
(-0.103562 0.0357269 0.0451313)
(-0.127642 0.0424139 -0.0304484)
(-0.140435 0.0359609 -0.134067)
(-0.127092 0.0159234 -0.233111)
(-0.0500206 -0.00437706 -0.221111)
(-0.0153389 -0.0131342 0.105059)
(-0.0453185 -0.0149316 0.16923)
(-0.0732914 -0.0049523 0.17184)
(-0.0926894 0.011205 0.147188)
(-0.108398 0.0287716 0.10453)
(-0.124024 0.0429269 0.0409783)
(-0.139066 0.0476947 -0.050099)
(-0.143001 0.0372859 -0.171615)
(-0.128423 0.0144653 -0.285606)
(-0.0509337 -0.00424415 -0.26325)
(-0.0167682 -0.009631 0.107846)
(-0.051712 -0.0111797 0.175506)
(-0.0851984 -0.00334339 0.177542)
(-0.106069 0.00920346 0.149956)
(-0.119016 0.0222833 0.103559)
(-0.12881 0.0318418 0.0362136)
(-0.137671 0.0336087 -0.0588244)
(-0.138104 0.0246302 -0.185975)
(-0.126345 0.00866554 -0.305872)
(-0.0513945 -0.00267954 -0.280297)
(-0.01737 -0.00347254 0.108504)
(-0.0545168 -0.00405783 0.176832)
(-0.0902094 -0.00113791 0.178157)
(-0.111074 0.00349129 0.149258)
(-0.121984 0.00819726 0.101796)
(-0.128704 0.0114343 0.0339007)
(-0.135164 0.0117258 -0.0617135)
(-0.135203 0.00828729 -0.190667)
(-0.125735 0.00276813 -0.313001)
(-0.0519168 -0.000869892 -0.286593)
(-0.01737 0.00347253 0.108504)
(-0.0545168 0.00405782 0.176832)
(-0.0902094 0.0011379 0.178157)
(-0.111074 -0.0034913 0.149258)
(-0.121984 -0.00819727 0.101796)
(-0.128704 -0.0114343 0.0339007)
(-0.135164 -0.0117258 -0.0617135)
(-0.135203 -0.0082873 -0.190667)
(-0.125735 -0.00276814 -0.313001)
(-0.0519168 0.000869887 -0.286593)
(-0.0167682 0.00963098 0.107846)
(-0.051712 0.0111797 0.175506)
(-0.0851983 0.00334338 0.177542)
(-0.106069 -0.00920347 0.149956)
(-0.119016 -0.0222833 0.103559)
(-0.12881 -0.0318418 0.0362136)
(-0.137671 -0.0336087 -0.0588244)
(-0.138104 -0.0246302 -0.185975)
(-0.126345 -0.00866554 -0.305872)
(-0.0513945 0.00267954 -0.280297)
(-0.0153389 0.0131342 0.10506)
(-0.0453185 0.0149316 0.16923)
(-0.0732914 0.0049523 0.17184)
(-0.0926894 -0.011205 0.147188)
(-0.108398 -0.0287716 0.10453)
(-0.124024 -0.0429269 0.0409783)
(-0.139066 -0.0476947 -0.050099)
(-0.143001 -0.0372859 -0.171615)
(-0.128423 -0.0144653 -0.285606)
(-0.0509337 0.00424415 -0.26325)
(-0.012624 0.0115005 0.0947983)
(-0.0342506 0.0124 0.146853)
(-0.0520538 0.00455992 0.148108)
(-0.0660947 -0.0081166 0.128722)
(-0.0821713 -0.0226154 0.0957224)
(-0.103562 -0.0357269 0.0451313)
(-0.127642 -0.0424139 -0.0304484)
(-0.140435 -0.0359609 -0.134067)
(-0.127092 -0.0159234 -0.233111)
(-0.0500206 0.00437707 -0.221111)
(-0.0070541 0.004593 0.0594359)
(-0.0161955 0.00470564 0.0810163)
(-0.0200933 0.00188186 0.0785792)
(-0.024144 -0.00261954 0.0689536)
(-0.0333861 -0.00792455 0.05521)
(-0.0507525 -0.0131 0.0339072)
(-0.0743753 -0.0163242 -0.00105115)
(-0.0924426 -0.0146393 -0.0543255)
(-0.087705 -0.00728556 -0.110711)
(-0.0362122 0.00137387 -0.117419)
(-0.0164981 -0.00627768 0.081905)
(-0.0281368 -0.00638422 0.0926395)
(-0.0177905 -0.00256118 0.0808431)
(-0.00848969 0.00342189 0.0645769)
(-0.00704303 0.0104115 0.0476903)
(-0.0186725 0.0176859 0.0255655)
(-0.0455294 0.0232682 -0.0111304)
(-0.0762237 0.0218673 -0.0738224)
(-0.0964901 0.0102462 -0.153132)
(-0.0418411 -0.00611829 -0.196107)
(-0.0255059 -0.0143959 0.122755)
(-0.0494843 -0.0151072 0.167368)
(-0.0446549 -0.00543394 0.158393)
(-0.0334645 0.00966505 0.131251)
(-0.0259149 0.0268061 0.0962523)
(-0.0285643 0.0432004 0.048567)
(-0.0461172 0.0537652 -0.0236717)
(-0.067846 0.0474248 -0.137103)
(-0.0948182 0.0189061 -0.274858)
(-0.0358358 -0.0144711 -0.326871)
(-0.0283045 -0.0152204 0.132729)
(-0.0589631 -0.0169235 0.192361)
(-0.0608509 -0.0056301 0.186809)
(-0.0504321 0.0118544 0.15641)
(-0.0377881 0.0307719 0.11443)
(-0.0294675 0.0468058 0.0569663)
(-0.0333569 0.0541826 -0.0270837)
(-0.0431506 0.0433722 -0.156932)
(-0.0744224 0.0137565 -0.315326)
(-0.0274465 -0.0126081 -0.368212)
(-0.0293152 -0.010628 0.134981)
(-0.0633167 -0.0121091 0.199188)
(-0.0686496 -0.00367314 0.194535)
(-0.0580048 0.00914515 0.162965)
(-0.0416802 0.0224412 0.119012)
(-0.0267106 0.0326968 0.0591516)
(-0.0236886 0.0359252 -0.0277819)
(-0.0293981 0.0267907 -0.163047)
(-0.0660014 0.00737395 -0.329464)
(-0.0256671 -0.00746234 -0.383478)
(-0.0296328 -0.00374029 0.135409)
(-0.0649318 -0.00429818 0.200578)
(-0.071446 -0.00122671 0.195848)
(-0.0602679 0.00337736 0.163804)
(-0.0420075 0.0080254 0.119507)
(-0.0242016 0.0114117 0.0594661)
(-0.0189548 0.0121859 -0.0279296)
(-0.0243458 0.00875439 -0.165106)
(-0.0641297 0.00225238 -0.334616)
(-0.0258659 -0.00234954 -0.389118)
(-0.0296328 0.00374028 0.135409)
(-0.0649318 0.00429817 0.200578)
(-0.071446 0.0012267 0.195848)
(-0.0602679 -0.00337737 0.163804)
(-0.0420075 -0.0080254 0.119507)
(-0.0242016 -0.0114118 0.0594661)
(-0.0189548 -0.0121859 -0.0279296)
(-0.0243458 -0.00875439 -0.165106)
(-0.0641297 -0.00225239 -0.334616)
(-0.0258659 0.00234953 -0.389118)
(-0.0293152 0.010628 0.134981)
(-0.0633167 0.0121091 0.199188)
(-0.0686496 0.00367314 0.194535)
(-0.0580048 -0.00914515 0.162965)
(-0.0416802 -0.0224412 0.119012)
(-0.0267106 -0.0326968 0.0591516)
(-0.0236886 -0.0359252 -0.0277819)
(-0.0293981 -0.0267908 -0.163047)
(-0.0660014 -0.00737395 -0.329464)
(-0.0256671 0.00746234 -0.383478)
(-0.0283045 0.0152204 0.132729)
(-0.0589631 0.0169235 0.192361)
(-0.0608509 0.0056301 0.186809)
(-0.0504321 -0.0118544 0.15641)
(-0.037788 -0.0307719 0.11443)
(-0.0294675 -0.0468058 0.0569663)
(-0.0333569 -0.0541826 -0.0270837)
(-0.0431506 -0.0433722 -0.156932)
(-0.0744224 -0.0137565 -0.315326)
(-0.0274465 0.0126081 -0.368212)
(-0.0255059 0.0143959 0.122755)
(-0.0494843 0.0151072 0.167368)
(-0.0446549 0.00543393 0.158393)
(-0.0334645 -0.00966505 0.131251)
(-0.0259149 -0.0268061 0.0962523)
(-0.0285643 -0.0432004 0.048567)
(-0.0461172 -0.0537652 -0.0236717)
(-0.067846 -0.0474248 -0.137103)
(-0.0948182 -0.0189061 -0.274858)
(-0.0358358 0.0144711 -0.326871)
(-0.0164981 0.00627768 0.081905)
(-0.0281368 0.00638422 0.0926395)
(-0.0177905 0.00256118 0.0808431)
(-0.00848969 -0.00342189 0.0645769)
(-0.00704303 -0.0104115 0.0476903)
(-0.0186725 -0.0176859 0.0255655)
(-0.0455294 -0.0232682 -0.0111304)
(-0.0762237 -0.0218673 -0.0738224)
(-0.0964901 -0.0102462 -0.153132)
(-0.0418411 0.00611829 -0.196107)
(-0.0238353 -0.0112247 0.150186)
(-0.0202301 -0.0121033 0.098163)
(0.0282366 -0.00748007 0.0628855)
(0.0625461 -0.000895548 0.0414979)
(0.0832895 0.00652196 0.0250196)
(0.0854429 0.0144058 0.00716128)
(0.0631106 0.0216174 -0.0214392)
(0.0255563 0.0208077 -0.0789705)
(-0.0421224 0.00507053 -0.174163)
(-0.00680674 -0.017929 -0.259815)
(-0.0424908 -0.0230263 0.209701)
(-0.0414749 -0.0261848 0.169865)
(0.0235272 -0.0167706 0.12826)
(0.0794466 -0.00248981 0.0960451)
(0.124135 0.0138248 0.0663036)
(0.152011 0.0303394 0.0324072)
(0.150152 0.0445683 -0.017085)
(0.13101 0.0425776 -0.107513)
(0.040134 0.00993268 -0.256489)
(0.0437464 -0.0320519 -0.369645)
(-0.0477679 -0.0209504 0.219942)
(-0.051036 -0.0259715 0.190425)
(0.0130626 -0.0171682 0.151887)
(0.0736515 -0.00279662 0.118388)
(0.127292 0.0135558 0.0848144)
(0.169128 0.0289665 0.0450319)
(0.181474 0.0401278 -0.0114497)
(0.176703 0.03538 -0.110574)
(0.0809795 0.0056627 -0.2753)
(0.063213 -0.022801 -0.395253)
(-0.0487953 -0.0134233 0.220974)
(-0.0538332 -0.0172636 0.194595)
(0.00901232 -0.0112912 0.15762)
(0.0708252 -0.00157394 0.124369)
(0.127527 0.00917916 0.0901871)
(0.174576 0.0188236 0.0489584)
(0.191792 0.0248873 -0.00973484)
(0.191127 0.0207921 -0.111772)
(0.0910697 0.00327213 -0.281937)
(0.0662839 -0.0119741 -0.403934)
(-0.0488465 -0.00453254 0.220778)
(-0.0542776 -0.00591096 0.194935)
(0.00829441 -0.0038135 0.15829)
(0.0706764 -0.000448766 0.12517)
(0.128436 0.00319443 0.0910551)
(0.177056 0.00636246 0.0497286)
(0.195382 0.00819684 -0.00951764)
(0.194942 0.00668761 -0.11268)
(0.0922266 0.00109498 -0.284703)
(0.0659175 -0.00356353 -0.407098)
(-0.0488465 0.00453253 0.220778)
(-0.0542776 0.00591095 0.194935)
(0.00829441 0.00381349 0.15829)
(0.0706764 0.000448759 0.12517)
(0.128436 -0.00319443 0.0910551)
(0.177056 -0.00636246 0.0497286)