/*--------------------------------*- C++ -*----------------------------------*\
  =========                 |
  \\      /  F ield         | OpenFOAM: The Open Source CFD Toolbox
   \\    /   O peration     | Website:  https://openfoam.org
    \\  /    A nd           | Version:  9
     \\/     M anipulation  |
\*---------------------------------------------------------------------------*/
FoamFile
{
    format      ascii;
    class       volScalarField;
    location    "0.54";
    object      p;
}
// * * * * * * * * * * * * * * * * * * * * * * * * * * * * * * * * * * * * * //

dimensions      [0 2 -2 0 0 0 0];

internalField   nonuniform List<scalar> 
1000
(
9.70746e-07
-0.000454948
-8.65906e-05
0.00103938
0.00297402
0.00558122
0.00840988
0.0107175
0.0118089
0.0109799
0.00017519
-0.000672652
-0.000406459
0.000760713
0.00286521
0.00575533
0.00891118
0.0114325
0.0124725
0.0111104
0.000892669
-0.000210997
1.9307e-05
0.00127956
0.00361569
0.00685481
0.0103775
0.0130499
0.0138665
0.0117948
0.00165517
0.000385959
0.000603679
0.00195559
0.0045009
0.00805557
0.011838
0.014578
0.0151625
0.0125315
0.00212972
0.000784111
0.00100075
0.00240637
0.00506625
0.00878318
0.0127077
0.0154682
0.0159139
0.0129887
0.00212985
0.000784217
0.00100084
0.00240643
0.0050663
0.00878322
0.0127077
0.0154682
0.0159139
0.0129887
0.00165557
0.000386295
0.000603945
0.00195578
0.00450105
0.00805566
0.011838
0.0145781
0.0151626
0.0125315
0.000893459
-0.000210363
1.97739e-05
0.00127988
0.00361592
0.00685496
0.0103776
0.0130499
0.0138666
0.0117949
0.0001767
-0.00067161
-0.00040578
0.000761136
0.00286551
0.00575551
0.00891132
0.0114326
0.0124726
0.0111105
4.15875e-06
-0.000453379
-8.57218e-05
0.0010399
0.00297437
0.00558145
0.00841004
0.0107176
0.011809
0.01098
0.0003721
-4.51026e-05
0.000344942
0.00135684
0.0030639
0.00540095
0.00800639
0.0102315
0.0113429
0.0102448
0.000900337
2.58001e-05
0.000337568
0.00133699
0.0030727
0.00549479
0.00823807
0.0105833
0.0116559
0.00991013
0.00202752
0.000778323
0.00103093
0.00203187
0.00383499
0.00639344
0.00936775
0.011793
0.0126731
0.0101995
0.00307415
0.00154941
0.00175104
0.00275688
0.0046342
0.00735731
0.0104931
0.0129531
0.0136411
0.0106382
0.00368948
0.00202171
0.00219525
0.00320426
0.00512395
0.00794355
0.0111642
0.0136314
0.0142064
0.0109428
0.00368958
0.0020218
0.00219532
0.00320431
0.00512399
0.00794358
0.0111642
0.0136314
0.0142065
0.0109428
0.00307449
0.0015497
0.00175128
0.00275705
0.00463433
0.0073574
0.0104932
0.0129532
0.0136411
0.0106382
0.00202815
0.000778837
0.00103132
0.00203215
0.00383519
0.00639359
0.00936786
0.0117931
0.0126731
0.0101996
0.00090137
2.65957e-05
0.000338132
0.00133736
0.00307296
0.00549497
0.0082382
0.0105834
0.011656
0.00991019
0.000373641
-4.40393e-05
0.000345626
0.00135729
0.00306419
0.00540116
0.00800654
0.0102316
0.011343
0.0102449
-0.000943758
-0.00149477
-0.001204
-0.000362532
0.00119606
0.0035701
0.00653798
0.00943404
0.0111905
0.00991422
-0.000105026
-0.00127276
-0.00106456
-0.000233347
0.00135527
0.00383878
0.00699399
0.0100579
0.0117463
0.00934336
0.00151417
-0.000194495
-9.5745e-05
0.000659607
0.00223518
0.00483253
0.0081867
0.0113739
0.0128681
0.00944002
0.0029557
0.000849503
0.00084524
0.00152805
0.00309621
0.00578688
0.0092839
0.0125221
0.0138215
0.00970825
0.00378301
0.00147018
0.00140623
0.00204693
0.00361266
0.00635317
0.00991551
0.0131615
0.0143469
0.009916
0.00378308
0.00147024
0.00140628
0.00204698
0.00361269
0.00635319
0.00991553
0.0131615
0.0143469
0.00991602
0.00295596
0.000849735
0.000845429
0.00152819
0.00309632
0.00578697
0.00928396
0.0125221
0.0138215
0.0097083
0.00151461
-0.000194111
-9.54347e-05
0.000659847
0.00223537
0.00483267
0.0081868
0.011374
0.0128681
0.00944008
-0.000104374
-0.00127221
-0.00106413
-0.000233041
0.00135549
0.00383896
0.00699412
0.010058
0.0117463
0.00934342
-0.000942926
-0.0014941
-0.00120351
-0.000362182
0.0011963
0.00357029
0.00653811
0.00943413
0.0111906
0.0099143
-0.00432672
-0.00500271
-0.00485999
-0.0042634
-0.00288305
-0.000323577
0.00347822
0.00791881
0.0113372
0.0104543
-0.0031671
-0.00461402
-0.00455843
-0.00395652
-0.00251603
0.000207934
0.00429931
0.00907093
0.0124263
0.00983501
-0.00102966
-0.00318923
-0.00333727
-0.0029508
-0.0016788
0.00105828
0.00530709
0.010327
0.0136037
0.00984275
0.000837926
-0.00184486
-0.00218734
-0.00201066
-0.000903923
0.00177786
0.00613467
0.0112758
0.0144443
0.0099853
0.00189644
-0.00105753
-0.00151311
-0.00145797
-0.000442825
0.00220803
0.00659243
0.0117623
0.0148606
0.0101059
0.00189649
-0.00105748
-0.00151307
-0.00145794
-0.000442798
0.00220805
0.00659245
0.0117623
0.0148606
0.0101059
0.000838112
-0.00184468
-0.00218719
-0.00201055
-0.000903833
0.00177793
0.00613473
0.0112759
0.0144444
0.00998534
-0.00102935
-0.00318896
-0.00333704
-0.00295061
-0.00167866
0.00105839
0.00530718
0.0103271
0.0136038
0.00984281
-0.00316668
-0.00461365
-0.00455812
-0.00395628
-0.00251587
0.000208065
0.00429941
0.00907102
0.0124264
0.00983507
-0.00432622
-0.00500226
-0.00485964
-0.00426313
-0.00288286
-0.000323416
0.00347833
0.0079189
0.0113373
0.0104544
-0.0104669
-0.0111054
-0.0110485
-0.0107334
-0.00961417
-0.00681912
-0.00170097
0.00546064
0.0122066
0.0133894
-0.00901248
-0.0105623
-0.0106163
-0.0103148
-0.00915172
-0.00623328
-0.000808136
0.00691085
0.0138146
0.0131518
-0.00643733
-0.00886791
-0.00929385
-0.00947057
-0.00880918
-0.00620635
-0.000792431
0.00735247
0.0145579
0.013186
-0.00422502
-0.00729681
-0.00806558
-0.00868044
-0.00845549
-0.00613085
-0.000799138
0.00755844
0.0149328
0.0132578
-0.00298578
-0.00638733
-0.00735123
-0.00820998
-0.00821886
-0.00605296
-0.000785049
0.00763452
0.0150671
0.013301
-0.00298574
-0.00638728
-0.00735119
-0.00820995
-0.00821884
-0.00605294
-0.000785032
0.00763453
0.0150671
0.013301
-0.00422488
-0.00729666
-0.00806545
-0.00868034
-0.00845542
-0.00613079
-0.000799089
0.00755849
0.0149328
0.0132578
-0.00643711
-0.00886771
-0.00929367
-0.00947041
-0.00880906
-0.00620626
-0.000792366
0.00735253
0.0145579
0.0131861
-0.0090122
-0.010562
-0.0106161
-0.0103146
-0.00915158
-0.00623316
-0.00080805
0.00691093
0.0138146
0.0131519
-0.0104665
-0.0111051
-0.0110483
-0.0107332
-0.00961403
-0.00681898
-0.00170087
0.00546073
0.0122067
0.0133895
-0.0200399
-0.0201182
-0.0198065
-0.0196566
-0.0188051
-0.0158046
-0.00898117
0.0022427
0.0149685
0.021583
-0.0183073
-0.0194692
-0.0193579
-0.0193364
-0.0187079
-0.0159773
-0.0093068
0.00245042
0.0158242
0.0219469
-0.0154055
-0.0176124
-0.0181299
-0.019006
-0.0194033
-0.0176149
-0.0114441
0.000826319
0.0152623
0.0219925
-0.0129702
-0.0159153
-0.0169719
-0.0185926
-0.0198078
-0.0187282
-0.0129293
-0.00040841
0.0146551
0.0219348
-0.0116273
-0.0149452
-0.0162975
-0.0183094
-0.0199328
-0.019191
-0.0135953
-0.00100453
0.0143171
0.0218732
-0.0116273
-0.0149452
-0.0162974
-0.0183094
-0.0199328
-0.019191
-0.0135953
-0.00100452
0.0143171
0.0218732
-0.0129701
-0.0159152
-0.0169718
-0.0185926
-0.0198078
-0.0187281
-0.0129293
-0.000408379
0.0146552
0.0219348
-0.0154053
-0.0176123
-0.0181298
-0.0190058
-0.0194032
-0.0176148
-0.0114441
0.000826364
0.0152624
0.0219925
-0.0183071
-0.019469
-0.0193578
-0.0193363
-0.0187078
-0.0159772
-0.00930673
0.00245049
0.0158243
0.021947
-0.0200397
-0.020118
-0.0198063
-0.0196564
-0.018805
-0.0158045
-0.00898108
0.00224278
0.0149685
0.0215831
-0.0341915
-0.0319996
-0.0304563
-0.0299283
-0.0292157
-0.0261005
-0.0176232
-0.00115413
0.0206592
0.0393192
-0.031987
-0.0311974
-0.0301055
-0.0300874
-0.0301349
-0.0281561
-0.020926
-0.00460883
0.0183784
0.0394485
-0.0287377
-0.0291234
-0.028979
-0.0303621
-0.0321331
-0.0319764
-0.026081
-0.0094537
0.0153618
0.0393019
-0.0261311
-0.0272985
-0.0278834
-0.0303178
-0.033301
-0.0343168
-0.0292061
-0.0123866
0.0134783
0.0391697
-0.0247313
-0.0262817
-0.0272487
-0.0302008
-0.033744
-0.0352745
-0.0305072
-0.013631
0.0126597
0.0390893
-0.0247312
-0.0262816
-0.0272487
-0.0302008
-0.033744
-0.0352745
-0.0305072
-0.013631
0.0126597
0.0390893
-0.026131
-0.0272984
-0.0278833
-0.0303177
-0.0333009
-0.0343167
-0.0292061
-0.0123866
0.0134783
0.0391697
-0.0287376
-0.0291233
-0.0289789
-0.030362
-0.0321331
-0.0319763
-0.0260809
-0.00945366
0.0153618
0.0393019
-0.0319869
-0.0311973
-0.0301054
-0.0300873
-0.0301349
-0.0281561
-0.0209259
-0.00460878
0.0183785
0.0394486
-0.0341913
-0.0319995
-0.0304562
-0.0299282
-0.0292156
-0.0261004
-0.0176231
-0.00115407
0.0206593
0.0393193
-0.0568124
-0.0463768
-0.0415307
-0.0393575
-0.0381926
-0.0347432
-0.025005
-0.00262197
0.0306437
0.0734627
-0.0534686
-0.0449089
-0.040951
-0.0400556
-0.0404642
-0.0392463
-0.0324321
-0.0115929
0.0229105
0.0739025
-0.049285
-0.0419929
-0.0392195
-0.0402939
-0.0430903
-0.0443422
-0.0396275
-0.0187069
0.0181698
0.0752914
-0.0462147
-0.0396775
-0.0377178
-0.0400739
-0.0443859
-0.0470522
-0.0434015
-0.0221674
0.0161563
0.0766032
-0.0446539
-0.0384688
-0.0369177
-0.0398666
-0.0448295
-0.0480644
-0.0448448
-0.0234499
0.0155029
0.0772341
-0.0446539
-0.0384687
-0.0369177
-0.0398666
-0.0448295
-0.0480644
-0.0448448
-0.0234499
0.0155029
0.0772341
-0.0462147
-0.0396774
-0.0377177
-0.0400738
-0.0443859
-0.0470522
-0.0434015
-0.0221674
0.0161563
0.0766032
-0.0492849
-0.0419928
-0.0392194
-0.0402939
-0.0430902
-0.0443422
-0.0396275
-0.0187069
0.0181698
0.0752914
-0.0534685
-0.0449088
-0.0409509
-0.0400555
-0.0404642
-0.0392463
-0.0324321
-0.0115928
0.0229105
0.0739025
-0.0568123
-0.0463767
-0.0415306
-0.0393574
-0.0381925
-0.0347431
-0.0250049
-0.00262193
0.0306438
0.0734627
-0.0884621
-0.0607622
-0.0514488
-0.0457041
-0.0429001
-0.038371
-0.0258666
0.00497948
0.0517721
0.150914
-0.0807689
-0.056891
-0.0500675
-0.046732
-0.0462755
-0.044485
-0.0357262
-0.0058432
0.0453445
0.162491
-0.0743754
-0.0521336
-0.04687
-0.0460343
-0.0485046
-0.049398
-0.0427451
-0.0112512
0.046273
0.171456
-0.0704068
-0.0488785
-0.0444937
-0.0451784
-0.0493772
-0.0517746
-0.0459603
-0.013162
0.0475117
0.177093
-0.0685801
-0.0473168
-0.0433403
-0.0447037
-0.0496349
-0.0526416
-0.0471183
-0.0137868
0.0481917
0.179534
-0.0685801
-0.0473168
-0.0433403
-0.0447037
-0.0496349
-0.0526416
-0.0471183
-0.0137868
0.0481917
0.179534
-0.0704068
-0.0488785
-0.0444937
-0.0451784
-0.0493771
-0.0517746
-0.0459603
-0.013162
0.0475117
0.177093
-0.0743753
-0.0521335
-0.0468699
-0.0460343
-0.0485045
-0.0493979
-0.0427451
-0.0112512
0.046273
0.171456
-0.0807688
-0.056891
-0.0500674
-0.0467319
-0.0462754
-0.0444849
-0.0357262
-0.00584316
0.0453446
0.162491
-0.0884621
-0.0607622
-0.0514487
-0.045704
-0.0429
-0.0383709
-0.0258666
0.00497952
0.0517722
0.150914
-0.198835
-0.0735615
-0.0484921
-0.0399002
-0.0355185
-0.028781
-0.0119813
0.0330586
0.119107
0.324648
-0.186589
-0.0609522
-0.0407813
-0.0365595
-0.0357993
-0.0323788
-0.0180094
0.0298195
0.129527
0.359195
-0.177758
-0.0521388
-0.0342171
-0.0330421
-0.0354612
-0.0344402
-0.0210911
0.0298102
0.138748
0.37997
-0.172667
-0.0471458
-0.0302207
-0.0307549
-0.0350258
-0.0353555
-0.0223498
0.0301961
0.143289
0.389932
-0.170431
-0.0449885
-0.0284725
-0.0297338
-0.034799
-0.0357151
-0.0228526
0.0303518
0.145005
0.393715
-0.170431
-0.0449884
-0.0284725
-0.0297338
-0.034799
-0.035715
-0.0228526
0.0303519
0.145005
0.393715
-0.172667
-0.0471458
-0.0302206
-0.0307549
-0.0350257
-0.0353555
-0.0223498
0.0301961
0.143289
0.389932
-0.177758
-0.0521387
-0.034217
-0.033042
-0.0354611
-0.0344402
-0.021091
0.0298103
0.138748
0.37997
-0.186589
-0.0609521
-0.0407813
-0.0365594
-0.0357992
-0.0323787
-0.0180093
0.0298196
0.129527
0.359195
-0.198835
-0.0735614
-0.048492
-0.0399001
-0.0355184
-0.028781
-0.0119812
0.0330586
0.119107
0.324648
)
;

boundaryField
{
    top
    {
        type            zeroGradient;
    }
    others
    {
        type            zeroGradient;
    }
}


// ************************************************************************* //
