/*--------------------------------*- C++ -*----------------------------------*\
  =========                 |
  \\      /  F ield         | OpenFOAM: The Open Source CFD Toolbox
   \\    /   O peration     | Website:  https://openfoam.org
    \\  /    A nd           | Version:  9
     \\/     M anipulation  |
\*---------------------------------------------------------------------------*/
FoamFile
{
    format      ascii;
    class       surfaceScalarField;
    location    "0.54";
    object      phi;
}
// * * * * * * * * * * * * * * * * * * * * * * * * * * * * * * * * * * * * * //

dimensions      [0 3 -1 0 0 0 0];

internalField   nonuniform List<scalar> 
2700
(
-6.37251e-08
-9.81942e-08
1.61892e-07
-3.10454e-07
-1.06248e-07
3.52977e-07
-6.31737e-07
-1.0599e-07
4.27272e-07
-9.44256e-07
-1.26602e-07
4.39122e-07
-1.16344e-06
-1.77114e-07
3.963e-07
-1.19512e-06
-2.5237e-07
2.84049e-07
-9.74139e-07
-3.26673e-07
1.05691e-07
-5.39934e-07
-3.5229e-07
-8.1915e-08
-1.05761e-07
-2.83115e-07
-1.51058e-07
-9.31246e-08
-1.26363e-08
-1.63177e-07
-2.10626e-07
2.75609e-07
-6.86311e-07
-2.75258e-07
6.92144e-07
-1.34125e-06
-2.93766e-07
8.42713e-07
-1.95177e-06
-3.33464e-07
8.1738e-07
-2.35444e-06
-4.13833e-07
6.39395e-07
-2.38053e-06
-5.24194e-07
2.97912e-07
-1.92146e-06
-6.20769e-07
-1.6497e-07
-1.07019e-06
-6.33005e-07
-5.7056e-07
-2.36591e-07
-5.0398e-07
-6.12733e-07
-2.03745e-07
-1.25971e-07
-2.35541e-07
-2.27535e-07
2.5245e-07
-9.3928e-07
-3.20412e-07
7.48893e-07
-1.80243e-06
-3.49952e-07
9.19337e-07
-2.58917e-06
-3.90759e-07
8.4403e-07
-3.08574e-06
-4.64795e-07
5.47531e-07
-3.07958e-06
-5.62351e-07
3.20066e-08
-2.43893e-06
-6.35495e-07
-6.25928e-07
-1.31015e-06
-6.29473e-07
-1.13231e-06
-2.54617e-07
-4.99903e-07
-1.05961e-06
-2.20131e-07
-2.38231e-07
-2.81758e-07
-1.433e-07
1.97523e-07
-1.10014e-06
-2.08354e-07
7.06322e-07
-2.09378e-06
-2.2965e-07
8.73339e-07
-2.98729e-06
-2.54533e-07
7.57281e-07
-3.5342e-06
-2.96778e-07
3.78893e-07
-3.48466e-06
-3.49948e-07
-2.61937e-07
-2.71228e-06
-3.87847e-07
-1.02003e-06
-1.40321e-06
-3.78665e-07
-1.55988e-06
-2.29757e-07
-3.00716e-07
-1.37264e-06
-1.37913e-07
-3.11975e-07
-3.04591e-07
4.68879e-14
1.61291e-07
-1.17891e-06
-9.40363e-14
6.65962e-07
-2.23581e-06
-1.19594e-13
8.27256e-07
-3.17968e-06
-8.46233e-14
6.89338e-07
-3.74669e-06
-6.31141e-14
2.70231e-07
-3.67185e-06
-1.71167e-14
-4.24792e-07
-2.82883e-06
-7.97637e-15
-1.23087e-06
-1.43116e-06
-8.56117e-15
-1.77633e-06
-2.07971e-07
-2.27866e-15
-1.5239e-06
1.35302e-14
-3.45884e-07
-3.04591e-07
1.433e-07
1.61291e-07
-1.17891e-06
2.08353e-07
6.65962e-07
-2.23581e-06
2.29649e-07
8.27256e-07
-3.17968e-06
2.54533e-07
6.89338e-07
-3.74669e-06
2.96778e-07
2.70231e-07
-3.67185e-06
3.49948e-07
-4.24792e-07
-2.82883e-06
3.87847e-07
-1.23087e-06
-1.43116e-06
3.78665e-07
-1.77633e-06
-2.07971e-07
3.00716e-07
-1.5239e-06
1.37913e-07
-3.45884e-07
-2.81757e-07
2.27534e-07
1.97524e-07
-1.10014e-06
3.20411e-07
7.06323e-07
-2.09378e-06
3.49951e-07
8.7334e-07
-2.98729e-06
3.90759e-07
7.57281e-07
-3.5342e-06
4.64795e-07
3.78894e-07
-3.48466e-06
5.6235e-07
-2.61937e-07
-2.71228e-06
6.35495e-07
-1.02003e-06
-1.40321e-06
6.29473e-07
-1.55988e-06
-2.29757e-07
4.99903e-07
-1.37264e-06
2.20131e-07
-3.11975e-07
-2.3554e-07
2.10623e-07
2.52451e-07
-9.39279e-07
2.75255e-07
7.48894e-07
-1.80243e-06
2.93765e-07
9.19338e-07
-2.58917e-06
3.33464e-07
8.44031e-07
-3.08573e-06
4.13833e-07
5.47531e-07
-3.07958e-06
5.24194e-07
3.20066e-08
-2.43893e-06
6.20769e-07
-6.25928e-07
-1.31015e-06
6.33005e-07
-1.13231e-06
-2.54617e-07
5.0398e-07
-1.05961e-06
2.03745e-07
-2.38231e-07
-1.63175e-07
9.8186e-08
2.75612e-07
-6.86309e-07
1.06244e-07
6.92147e-07
-1.34125e-06
1.05989e-07
8.42714e-07
-1.95177e-06
1.26602e-07
8.17381e-07
-2.35444e-06
1.77114e-07
6.39395e-07
-2.38053e-06
2.5237e-07
2.97912e-07
-1.92146e-06
3.26673e-07
-1.6497e-07
-1.07019e-06
3.5229e-07
-5.7056e-07
-2.36591e-07
2.83115e-07
-6.12733e-07
9.31245e-08
-1.25971e-07
-6.37153e-08
1.61901e-07
-3.10451e-07
3.5298e-07
-6.31736e-07
4.27273e-07
-9.44256e-07
4.39123e-07
-1.16344e-06
3.96301e-07
-1.19512e-06
2.84049e-07
-9.74139e-07
1.05691e-07
-5.39934e-07
-8.19149e-08
-1.05761e-07
-1.51058e-07
-1.26363e-08
-2.21921e-07
-2.5848e-07
6.42294e-07
-7.23284e-07
-3.38323e-07
1.19266e-06
-1.32067e-06
-3.52838e-07
1.3775e-06
-1.88398e-06
-3.65015e-07
1.36745e-06
-2.27482e-06
-3.99606e-07
1.18675e-06
-2.33912e-06
-4.57352e-07
8.05705e-07
-1.96406e-06
-5.12156e-07
2.42783e-07
-1.18612e-06
-5.07234e-07
-3.52621e-07
-3.31751e-07
-3.77079e-07
-6.28349e-07
-7.95411e-08
-2.64846e-07
-5.92728e-07
-4.63726e-07
1.07358e-06
-1.7866e-06
-6.65725e-07
2.21342e-06
-3.15022e-06
-7.09669e-07
2.56316e-06
-4.36623e-06
-7.34035e-07
2.40241e-06
-5.137e-06
-7.88178e-07
1.79873e-06
-5.17496e-06
-8.69627e-07
7.48149e-07
-4.29564e-06
-9.38037e-07
-6.18406e-07
-2.61918e-06
-9.02242e-07
-1.85202e-06
-8.13357e-07
-6.82346e-07
-2.11329e-06
-2.21088e-07
-7.97781e-07
-8.61776e-07
-4.65922e-07
1.11642e-06
-2.53871e-06
-7.01708e-07
2.46181e-06
-4.4053e-06
-7.57034e-07
2.83329e-06
-6.0128e-06
-7.81959e-07
2.49945e-06
-6.96326e-06
-8.29549e-07
1.53937e-06
-6.91657e-06
-8.97728e-07
1.34096e-08
-5.64798e-06
-9.36994e-07
-1.89555e-06
-3.3825e-06
-8.83732e-07
-3.41631e-06
-1.0241e-06
-6.75863e-07
-3.42449e-06
-2.58735e-07
-1.22468e-06
-1.03077e-06
-2.84044e-07
1.04642e-06
-3.01633e-06
-4.3793e-07
2.42811e-06
-5.19409e-06
-4.75139e-07
2.7692e-06
-7.02683e-06
-4.89812e-07
2.29787e-06
-8.05912e-06
-5.15029e-07
1.09667e-06
-7.9111e-06
-5.49366e-07
-7.58326e-07
-6.37274e-06
-5.63224e-07
-2.93216e-06
-3.74351e-06
-5.25351e-07
-4.54749e-06
-1.08783e-06
-4.04829e-07
-4.29936e-06
-1.67089e-07
-1.49145e-06
-1.11139e-06
1.41064e-14
9.8864e-07
-3.24687e-06
-3.32332e-13
2.36351e-06
-5.57318e-06
-3.80764e-13
2.67843e-06
-7.50784e-06
-2.96221e-13
2.13419e-06
-8.56886e-06
-1.81767e-13
8.16228e-07
-8.35796e-06
-9.28905e-14
-1.18506e-06
-6.68151e-06
-5.39255e-14
-3.47054e-06
-3.88081e-06
-1.84493e-14
-5.10238e-06
-1.09903e-06
1.29494e-14
-4.71052e-06
2.39146e-14
-1.612e-06
-1.11139e-06
2.84044e-07
9.8864e-07
-3.24687e-06
4.37929e-07
2.36351e-06
-5.57318e-06
4.75138e-07
2.67843e-06
-7.50784e-06
4.89811e-07
2.13419e-06
-8.56886e-06
5.15029e-07
8.16228e-07
-8.35796e-06
5.49366e-07
-1.18506e-06
-6.68151e-06
5.63224e-07
-3.47054e-06
-3.88081e-06
5.25351e-07
-5.10238e-06
-1.09903e-06
4.04829e-07
-4.71052e-06
1.67089e-07
-1.612e-06
-1.03077e-06
4.65922e-07
1.04642e-06
-3.01633e-06
7.01707e-07
2.42811e-06
-5.19409e-06
7.57033e-07
2.7692e-06
-7.02682e-06
7.81958e-07
2.29787e-06
-8.05912e-06
8.29548e-07
1.09667e-06
-7.9111e-06
8.97728e-07
-7.58325e-07
-6.37274e-06
9.36994e-07
-2.93216e-06
-3.74351e-06
8.83732e-07
-4.54749e-06
-1.08783e-06
6.75863e-07
-4.29936e-06
2.58735e-07
-1.49145e-06
-8.61775e-07
4.63724e-07
1.11642e-06
-2.53871e-06
6.65723e-07
2.46181e-06
-4.4053e-06
7.09668e-07
2.83329e-06
-6.01279e-06
7.34034e-07
2.49945e-06
-6.96326e-06
7.88178e-07
1.53937e-06
-6.91657e-06
8.69627e-07
1.34097e-08
-5.64798e-06
9.38037e-07
-1.89555e-06
-3.3825e-06
9.02242e-07
-3.41631e-06
-1.0241e-06
6.82346e-07
-3.42449e-06
2.21088e-07
-1.22468e-06
-5.92726e-07
2.58477e-07
1.07358e-06
-1.7866e-06
3.38321e-07
2.21342e-06
-3.15022e-06
3.52837e-07
2.56316e-06
-4.36623e-06
3.65014e-07
2.40241e-06
-5.137e-06
3.99606e-07
1.79873e-06
-5.17496e-06
4.57352e-07
7.4815e-07
-4.29564e-06
5.12156e-07
-6.18406e-07
-2.61918e-06
5.07234e-07
-1.85202e-06
-8.13357e-07
3.77079e-07
-2.11329e-06
7.95411e-08
-7.97781e-07
-2.21918e-07
6.42297e-07
-7.23282e-07
1.19267e-06
-1.32067e-06
1.3775e-06
-1.88398e-06
1.36745e-06
-2.27482e-06
1.18675e-06
-2.33912e-06
8.05705e-07
-1.96406e-06
2.42783e-07
-1.18612e-06
-3.52621e-07
-3.3175e-07
-6.28349e-07
-2.64846e-07
-3.34373e-07
-3.98155e-07
1.37482e-06
-1.00739e-06
-5.27142e-07
2.39282e-06
-1.78481e-06
-5.33847e-07
2.68877e-06
-2.53378e-06
-5.06593e-07
2.62301e-06
-3.10774e-06
-4.88771e-07
2.24947e-06
-3.31147e-06
-4.98765e-07
1.5082e-06
-2.94712e-06
-5.23978e-07
4.02405e-07
-1.95197e-06
-5.18269e-07
-8.295e-07
-6.65649e-07
-3.88699e-07
-1.52597e-06
-3.90138e-08
-8.91481e-07
-9.38977e-07
-6.80801e-07
2.29521e-06
-2.64421e-06
-9.7466e-07
4.36617e-06
-4.52474e-06
-9.96179e-07
4.90603e-06
-6.2072e-06
-9.38122e-07
4.5164e-06
-7.35054e-06
-8.8393e-07
3.33724e-06
-7.58741e-06
-8.61733e-07
1.34799e-06
-6.5961e-06
-8.53915e-07
-1.27979e-06
-4.34701e-06
-8.09109e-07
-3.81027e-06
-1.56271e-06
-6.20335e-07
-4.66595e-06
-1.5355e-07
-2.24595e-06
-1.39385e-06
-6.64097e-07
2.49357e-06
-3.84856e-06
-9.90705e-07
4.93257e-06
-6.47286e-06
-1.01756e-06
5.47898e-06
-8.71255e-06
-9.50652e-07
4.75167e-06
-1.01082e-05
-8.76298e-07
2.92734e-06
-1.0222e-05
-8.1954e-07
8.51066e-08
-8.71864e-06
-7.72686e-07
-3.48019e-06
-5.6471e-06
-7.10699e-07
-6.58625e-06
-1.99499e-06
-5.58048e-07
-7.13889e-06
-1.89163e-07
-3.18406e-06
-1.68456e-06
-3.97909e-07
2.46479e-06
-4.62013e-06
-6.05984e-07
4.97896e-06
-7.69846e-06
-6.23515e-07
5.45348e-06
-1.02417e-05
-5.78668e-07
4.46913e-06
-1.17242e-05
-5.24649e-07
2.22749e-06
-1.16886e-05
-4.76382e-07
-1.13702e-06
-9.82657e-06
-4.33998e-07
-5.1329e-06
-6.26779e-06
-3.92348e-07
-8.42461e-06
-2.16349e-06
-3.14353e-07
-8.64736e-06
-1.22827e-07
-3.72128e-06
-1.82359e-06
7.26289e-14
2.41432e-06
-4.9912e-06
-3.33892e-13
4.92513e-06
-8.28193e-06
-4.26144e-13
5.34564e-06
-1.0955e-05
-3.3571e-13
4.22861e-06
-1.24553e-05
-2.10501e-13
1.79191e-06
-1.23255e-05
-1.17788e-13
-1.79133e-06
-1.02833e-05
-6.89763e-14
-5.94667e-06
-6.50543e-06
-2.29826e-14
-9.27263e-06
-2.21616e-06
5.39477e-15
-9.31413e-06
1.7573e-14
-3.95099e-06
-1.82359e-06
3.97909e-07
2.41432e-06
-4.9912e-06
6.05983e-07
4.92513e-06
-8.28193e-06
6.23514e-07
5.34564e-06
-1.0955e-05
5.78667e-07
4.22861e-06
-1.24553e-05
5.24649e-07
1.79191e-06
-1.23255e-05
4.76382e-07
-1.79133e-06
-1.02833e-05
4.33998e-07
-5.94667e-06
-6.50543e-06
3.92348e-07
-9.27263e-06
-2.21616e-06
3.14353e-07
-9.31413e-06
1.22827e-07
-3.95099e-06
-1.68456e-06
6.64097e-07
2.46479e-06
-4.62013e-06
9.90704e-07
4.97896e-06
-7.69846e-06
1.01756e-06
5.45348e-06
-1.02417e-05
9.50652e-07
4.46913e-06
-1.17242e-05
8.76297e-07
2.22749e-06
-1.16886e-05
8.1954e-07
-1.13702e-06
-9.82657e-06
7.72686e-07
-5.1329e-06
-6.26779e-06
7.10699e-07
-8.42461e-06
-2.16349e-06
5.58048e-07
-8.64736e-06
1.89163e-07
-3.72128e-06
-1.39385e-06
6.808e-07
2.49357e-06
-3.84856e-06
9.74659e-07
4.93257e-06
-6.47286e-06
9.96178e-07
5.47898e-06
-8.71255e-06
9.38121e-07
4.75167e-06
-1.01082e-05
8.8393e-07
2.92734e-06
-1.0222e-05
8.61733e-07
8.51069e-08
-8.71864e-06
8.53915e-07
-3.48019e-06
-5.6471e-06
8.09109e-07
-6.58625e-06
-1.99499e-06
6.20335e-07
-7.13889e-06
1.5355e-07
-3.18406e-06
-9.38976e-07
3.98154e-07
2.29521e-06
-2.6442e-06
5.2714e-07
4.36617e-06
-4.52474e-06
5.33847e-07
4.90603e-06
-6.2072e-06
5.06593e-07
4.5164e-06
-7.35054e-06
4.88771e-07
3.33724e-06
-7.58741e-06
4.98765e-07
1.34799e-06
-6.5961e-06
5.23978e-07
-1.27979e-06
-4.34701e-06
5.18269e-07
-3.81027e-06
-1.56271e-06
3.88699e-07
-4.66595e-06
3.90137e-08
-2.24595e-06
-3.34372e-07
1.37482e-06
-1.00738e-06
2.39282e-06
-1.78481e-06
2.68877e-06
-2.53378e-06
2.62301e-06
-3.10774e-06
2.24947e-06
-3.31147e-06
1.5082e-06
-2.94712e-06
4.02405e-07
-1.95197e-06
-8.295e-07
-6.65649e-07
-1.52597e-06
-8.91481e-07
-4.22264e-07
-5.25837e-07
2.32292e-06
-1.21706e-06
-6.80356e-07
3.86797e-06
-2.12575e-06
-6.43545e-07
4.24101e-06
-3.0528e-06
-5.28689e-07
4.07875e-06
-3.88205e-06
-4.03334e-07
3.48206e-06
-4.38834e-06
-3.17778e-07
2.33227e-06
-4.23833e-06
-2.95967e-07
5.48355e-07
-3.13985e-06
-3.34853e-07
-1.59312e-06
-1.29342e-06
-3.06904e-07
-3.0655e-06
-3.12565e-09
-2.18177e-06
-1.22214e-06
-8.7786e-07
3.86936e-06
-3.32873e-06
-1.21819e-06
7.01059e-06
-5.61745e-06
-1.14781e-06
7.69902e-06
-7.73338e-06
-9.09192e-07
7.01282e-06
-9.36176e-06
-6.29947e-07
5.19223e-06
-1.00787e-05
-3.99999e-07
2.14718e-06
-9.34806e-06
-2.81032e-07
-2.02539e-06
-6.75959e-06
-3.08018e-07
-6.42558e-06
-2.80932e-06
-3.33572e-07
-8.58955e-06
-5.82433e-08
-5.00015e-06
-1.83372e-06
-8.41123e-07
4.29055e-06
-4.91047e-06
-1.20996e-06
8.0011e-06
-8.13167e-06
-1.13418e-06
8.68654e-06
-1.09272e-05
-8.69647e-07
7.50763e-06
-1.28639e-05
-5.48505e-07
4.78264e-06
-1.34487e-05
-2.61301e-07
5.31204e-07
-1.21571e-05
-1.00017e-07
-4.95278e-06
-8.61375e-06
-1.18291e-07
-1.03194e-05
-3.52564e-06
-2.02747e-07
-1.23578e-05
-7.64926e-08
-6.69146e-06
-2.22539e-06
-4.98072e-07
4.34713e-06
-5.91935e-06
-7.29343e-07
8.1923e-06
-9.69163e-06
-6.8036e-07
8.77194e-06
-1.28223e-05
-5.0939e-07
7.23957e-06
-1.48181e-05
-2.98839e-07
3.97356e-06
-1.52076e-05
-1.06936e-07
-9.01877e-07
-1.35122e-05
4.27009e-09
-6.93255e-06
-9.44246e-06
-9.82482e-09
-1.26028e-05
-3.81361e-06
-8.1656e-08
-1.43973e-05
-4.8383e-08
-7.563e-06
-2.41147e-06
1.08955e-13
4.32772e-06
-6.39871e-06
-2.96208e-13
8.18303e-06
-1.04196e-05
-4.12349e-13
8.68612e-06
-1.36786e-05
-3.63094e-13
6.97829e-06
-1.56617e-05
-2.43957e-13
3.47611e-06
-1.59231e-05
-1.43912e-13
-1.63687e-06
-1.40309e-05
-7.6461e-14
-7.83453e-06
-9.7441e-06
-2.17082e-14
-1.35693e-05
-3.91183e-06
2.20168e-14
-1.52281e-05
3.64191e-14
-7.9112e-06
-2.41147e-06
4.98072e-07
4.32772e-06
-6.39871e-06
7.29342e-07
8.18303e-06
-1.04196e-05
6.80359e-07
8.68612e-06
-1.36786e-05
5.09389e-07
6.97829e-06
-1.56617e-05
2.98838e-07
3.47611e-06
-1.59231e-05
1.06936e-07
-1.63687e-06
-1.40309e-05
-4.27025e-09
-7.83453e-06
-9.7441e-06
9.82477e-09
-1.35693e-05
-3.91183e-06
8.1656e-08
-1.52281e-05
4.8383e-08
-7.9112e-06
-2.22539e-06
8.41122e-07
4.34713e-06
-5.91935e-06
1.20996e-06
8.19231e-06
-9.69163e-06
1.13417e-06
8.77194e-06
-1.28223e-05
8.69646e-07
7.23957e-06
-1.48181e-05
5.48505e-07
3.97356e-06
-1.52076e-05
2.61301e-07
-9.01876e-07
-1.35122e-05
1.00017e-07
-6.93255e-06
-9.44246e-06
1.18291e-07
-1.26028e-05
-3.81361e-06
2.02747e-07
-1.43973e-05
7.64926e-08
-7.563e-06
-1.83371e-06
8.7786e-07
4.29055e-06
-4.91047e-06
1.21819e-06
8.0011e-06
-8.13167e-06
1.14781e-06
8.68654e-06
-1.09272e-05
9.09192e-07
7.50763e-06
-1.28639e-05
6.29947e-07
4.78264e-06
-1.34487e-05
3.99999e-07
5.31205e-07
-1.21571e-05
2.81032e-07
-4.95278e-06
-8.61375e-06
3.08018e-07
-1.03194e-05
-3.52564e-06
3.33572e-07
-1.23578e-05
5.82432e-08
-6.69146e-06
-1.22213e-06
5.25836e-07
3.86936e-06
-3.32872e-06
6.80355e-07
7.01059e-06
-5.61745e-06
6.43545e-07
7.69902e-06
-7.73338e-06
5.28689e-07
7.01282e-06
-9.36176e-06
4.03334e-07
5.19223e-06
-1.00787e-05
3.17778e-07
2.14718e-06
-9.34806e-06
2.95967e-07
-2.02539e-06
-6.75959e-06
3.34853e-07
-6.42558e-06
-2.80932e-06
3.06904e-07
-8.58955e-06
3.12573e-09
-5.00015e-06
-4.22264e-07
2.32292e-06
-1.21706e-06
3.86797e-06
-2.12575e-06
4.24101e-06
-3.0528e-06
4.07875e-06
-3.88205e-06
3.48206e-06
-4.38834e-06
2.33227e-06
-4.23833e-06
5.48355e-07
-3.13985e-06
-1.59312e-06
-1.29342e-06
-3.0655e-06
-2.18177e-06
-5.22873e-07
-6.3238e-07
3.47818e-06
-1.3873e-06
-7.80488e-07
5.51288e-06
-2.34978e-06
-6.48285e-07
5.85177e-06
-3.41059e-06
-3.73298e-07
5.51286e-06
-4.54367e-06
-4.35662e-08
4.65871e-06
-5.53438e-06
2.30009e-07
3.09298e-06
-5.88543e-06
3.41518e-07
5.57881e-07
-4.92279e-06
2.09896e-07
-2.76566e-06
-2.43922e-06
-1.59538e-08
-5.53312e-06
4.95066e-09
-4.62594e-06
-1.47981e-06
-1.03468e-06
5.75147e-06
-3.85423e-06
-1.36456e-06
9.96908e-06
-6.37732e-06
-1.11053e-06
1.06844e-05
-8.80943e-06
-5.61204e-07
9.63285e-06
-1.0953e-05
9.32606e-08
7.19898e-06
-1.23977e-05
6.59635e-07
3.16223e-06
-1.23781e-05
9.24307e-07
-2.62774e-06
-9.91663e-06
7.11475e-07
-9.38864e-06
-4.81272e-06
2.12046e-07
-1.39215e-05
4.35383e-09
-9.81228e-06
-2.19676e-06
-9.7597e-07
6.4286e-06
-5.68365e-06
-1.32979e-06
1.14532e-05
-9.23943e-06
-1.0612e-06
1.2193e-05
-1.23851e-05
-4.74405e-07
1.05665e-05
-1.48165e-05
2.24115e-07
7.0832e-06
-1.60883e-05
8.2511e-07
1.63751e-06
-1.54967e-05
1.09914e-06
-5.71914e-06
-1.21055e-05
8.69989e-07
-1.38691e-05
-5.79852e-06
3.2806e-07
-1.87808e-05
1.03974e-08
-1.2496e-05
-2.6469e-06
-5.71797e-07
6.58985e-06
-6.82365e-06
-7.91292e-07
1.18306e-05
-1.09555e-05
-6.2205e-07
1.24646e-05
-1.43942e-05
-2.52648e-07
1.04565e-05
-1.67998e-05
1.8506e-07
6.41827e-06
-1.77788e-05
5.56609e-07
3.45573e-07
-1.67766e-05
7.14219e-07
-7.54978e-06
-1.29425e-05
5.61483e-07
-1.61285e-05
-6.1676e-06
2.22861e-07
-2.1067e-05
1.01906e-08
-1.37304e-05
-2.85627e-06
7.87369e-14
6.6122e-06
-7.35171e-06
-2.94283e-13
1.18872e-05
-1.17282e-05
-4.47268e-13
1.24405e-05
-1.52541e-05
-3.95345e-13
1.02516e-05
-1.75865e-05
-2.49418e-13
5.99354e-06
-1.83874e-05
-1.08803e-13
-2.79269e-07
-1.71996e-05
-1.80472e-14
-8.30815e-06
-1.32152e-05
5.40948e-14
-1.69923e-05
-6.29536e-06
7.09933e-14
-2.1925e-05
4.61993e-14
-1.41964e-05
-2.85627e-06
5.71797e-07
6.6122e-06
-7.35171e-06
7.91291e-07
1.18872e-05
-1.17282e-05
6.22049e-07
1.24405e-05
-1.52541e-05
2.52647e-07
1.02516e-05
-1.75865e-05
-1.85061e-07
5.99354e-06
-1.83874e-05
-5.56609e-07
-2.79269e-07
-1.71996e-05
-7.14219e-07
-8.30815e-06
-1.32152e-05
-5.61483e-07
-1.69923e-05
-6.29536e-06
-2.22861e-07
-2.1925e-05
-1.01905e-08
-1.41964e-05
-2.6469e-06
9.7597e-07
6.58985e-06
-6.82365e-06
1.32979e-06
1.18306e-05
-1.09555e-05
1.0612e-06
1.24646e-05
-1.43942e-05
4.74404e-07
1.04565e-05
-1.67998e-05
-2.24115e-07
6.41827e-06
-1.77788e-05
-8.2511e-07
3.45574e-07
-1.67766e-05
-1.09914e-06
-7.54978e-06
-1.29425e-05
-8.69989e-07
-1.61285e-05
-6.1676e-06
-3.2806e-07
-2.1067e-05
-1.03974e-08
-1.37304e-05
-2.19676e-06
1.03468e-06
6.4286e-06
-5.68365e-06
1.36455e-06
1.14532e-05
-9.23943e-06
1.11053e-06
1.2193e-05
-1.23851e-05
5.61204e-07
1.05665e-05
-1.48165e-05
-9.32607e-08
7.0832e-06
-1.60883e-05
-6.59635e-07
1.63751e-06
-1.54967e-05
-9.24307e-07
-5.71914e-06
-1.21055e-05
-7.11474e-07
-1.38691e-05
-5.79852e-06
-2.12046e-07
-1.87808e-05
-4.35391e-09
-1.2496e-05
-1.47981e-06
6.32379e-07
5.75147e-06
-3.85423e-06
7.80488e-07
9.96908e-06
-6.37732e-06
6.48285e-07
1.06844e-05
-8.80943e-06
3.73298e-07
9.63285e-06
-1.0953e-05
4.35663e-08
7.19898e-06
-1.23977e-05
-2.30009e-07
3.16223e-06
-1.23781e-05
-3.41518e-07
-2.62774e-06
-9.91663e-06
-2.09896e-07
-9.38864e-06
-4.81272e-06
1.59538e-08
-1.39215e-05
-4.95061e-09
-9.81228e-06
-5.22873e-07
3.47818e-06
-1.3873e-06
5.51288e-06
-2.34978e-06
5.85177e-06
-3.41059e-06
5.51286e-06
-4.54367e-06
4.65871e-06
-5.53438e-06
3.09298e-06
-5.88543e-06
5.57881e-07
-4.92279e-06
-2.76566e-06
-2.43922e-06
-5.53312e-06
-4.62594e-06
-7.22422e-07
-7.18398e-07
4.919e-06
-1.57734e-06
-8.17048e-07
7.18484e-06
-2.42654e-06
-5.26306e-07
7.22728e-06
-3.46573e-06
-4.14893e-10
6.55246e-06
-4.83114e-06
6.19236e-07
5.40488e-06
-6.40966e-06
1.18713e-06
3.48437e-06
-7.58584e-06
1.46739e-06
2.66673e-07
-7.20487e-06
1.19464e-06
-4.34126e-06
-4.26483e-06
4.83192e-07
-8.95635e-06
-6.4367e-08
-8.8264e-06
-1.79088e-06
-1.14544e-06
7.96939e-06
-4.22372e-06
-1.40093e-06
1.29858e-05
-6.61866e-06
-8.70291e-07
1.34233e-05
-8.98365e-06
1.05894e-07
1.18915e-05
-1.13689e-05
1.25447e-06
8.94895e-06
-1.35049e-05
2.25601e-06
4.22944e-06
-1.45524e-05
2.69473e-06
-2.80763e-06
-1.29703e-05
2.18678e-06
-1.19629e-05
-7.39437e-06
9.3675e-07
-1.99509e-05
-5.85741e-08
-1.72124e-05
-2.52979e-06
-1.06048e-06
8.87343e-06
-6.09205e-06
-1.34174e-06
1.49563e-05
-9.47325e-06
-8.02585e-07
1.55065e-05
-1.24305e-05
1.93644e-07
1.34359e-05
-1.49168e-05
1.34022e-06
9.48381e-06
-1.66962e-05
2.2909e-06
3.38201e-06
-1.7109e-05
2.62785e-06
-5.23944e-06
-1.47785e-05
2.05833e-06
-1.60712e-05
-8.3419e-06
8.64799e-07
-2.51455e-05
-2.84961e-08
-2.0868e-05
-2.97153e-06
-6.13762e-07
9.11467e-06
-7.20269e-06
-7.8868e-07
1.55087e-05
-1.10874e-05
-4.57969e-07
1.60047e-05
-1.42045e-05
1.51324e-07
1.36159e-05
-1.64932e-05
8.39736e-07
9.20749e-06
-1.78449e-05
1.38604e-06
2.60208e-06
-1.78303e-05
1.54324e-06
-6.47976e-06
-1.52409e-05
1.17119e-06
-1.78307e-05
-8.63977e-06
4.79338e-07
-2.72827e-05
-7.56259e-09
-2.23911e-05
-3.16885e-06
2.17533e-14
9.16728e-06
-7.69553e-06
-2.78971e-13
1.56252e-05
-1.17745e-05
-4.30227e-13
1.60615e-05
-1.49001e-05
-3.65311e-13
1.35285e-05
-1.70291e-05
-1.91785e-13
8.96234e-06
-1.81501e-05
-4.49049e-14
2.22772e-06
-1.79725e-05
5.1381e-14
-6.94249e-06
-1.53482e-05
1.19755e-13
-1.84454e-05
-8.74903e-06
1.08223e-13
-2.80448e-05
2.6705e-14
-2.2953e-05
-3.16885e-06
6.13762e-07
9.16728e-06
-7.69553e-06
7.8868e-07
1.56252e-05
-1.17745e-05
4.57968e-07
1.60615e-05
-1.49001e-05
-1.51325e-07
1.35285e-05
-1.70291e-05
-8.39736e-07
8.96234e-06
-1.81501e-05
-1.38604e-06
2.22772e-06
-1.79725e-05
-1.54324e-06
-6.94249e-06
-1.53482e-05
-1.17119e-06
-1.84454e-05
-8.74903e-06
-4.79337e-07
-2.80448e-05
7.56262e-09
-2.2953e-05
-2.97153e-06
1.06048e-06
9.11467e-06
-7.20269e-06
1.34174e-06
1.55087e-05
-1.10874e-05
8.02585e-07
1.60047e-05
-1.42045e-05
-1.93644e-07
1.36159e-05
-1.64932e-05
-1.34022e-06
9.20749e-06
-1.78449e-05
-2.2909e-06
2.60208e-06
-1.78303e-05
-2.62785e-06
-6.47976e-06
-1.52409e-05
-2.05833e-06
-1.78307e-05
-8.63977e-06
-8.64799e-07
-2.72827e-05
2.84961e-08
-2.23911e-05
-2.52979e-06
1.14544e-06
8.87343e-06
-6.09205e-06
1.40092e-06
1.49563e-05
-9.47325e-06
8.70291e-07
1.55065e-05
-1.24305e-05
-1.05894e-07
1.34359e-05
-1.49168e-05
-1.25447e-06
9.48381e-06
-1.66962e-05
-2.25601e-06
3.38201e-06
-1.7109e-05
-2.69473e-06
-5.23944e-06
-1.47785e-05
-2.18678e-06
-1.60712e-05
-8.3419e-06
-9.3675e-07
-2.51455e-05
5.8574e-08
-2.0868e-05
-1.79088e-06
7.18398e-07
7.96939e-06
-4.22372e-06
8.17048e-07
1.29858e-05
-6.61866e-06
5.26306e-07
1.34233e-05
-8.98365e-06
4.14865e-10
1.18915e-05
-1.13689e-05
-6.19236e-07
8.94895e-06
-1.35049e-05
-1.18713e-06
4.22944e-06
-1.45524e-05
-1.46739e-06
-2.80763e-06
-1.29703e-05
-1.19464e-06
-1.19629e-05
-7.39437e-06
-4.83192e-07
-1.99509e-05
6.4367e-08
-1.72124e-05
-7.22422e-07
4.919e-06
-1.57734e-06
7.18484e-06
-2.42654e-06
7.22728e-06
-3.46573e-06
6.55246e-06
-4.83114e-06
5.40488e-06
-6.40966e-06
3.48437e-06
-7.58584e-06
2.66673e-07
-7.20487e-06
-4.34126e-06
-4.26483e-06
-8.95635e-06
-8.8264e-06
-1.26017e-06
-8.2998e-07
7.00915e-06
-1.91506e-06
-8.43211e-07
8.68294e-06
-2.29264e-06
-3.44443e-07
7.9493e-06
-2.9192e-06
4.69957e-07
6.70907e-06
-4.18978e-06
1.4389e-06
5.23656e-06
-6.19827e-06
2.38135e-06
3.11152e-06
-8.4117e-06
2.9387e-06
-4.58599e-07
-9.20769e-06
2.57396e-06
-6.11924e-06
-6.49099e-06
1.20725e-06
-1.28803e-05
-2.8507e-07
-1.50323e-05
-2.44459e-06
-1.25705e-06
1.0841e-05
-4.53803e-06
-1.40338e-06
1.56394e-05
-6.09581e-06
-5.56763e-07
1.51934e-05
-7.5614e-06
8.5023e-07
1.29768e-05
-9.35571e-06
2.47522e-06
9.70693e-06
-1.15521e-05
3.90925e-06
4.89789e-06
-1.3569e-05
4.55833e-06
-2.41037e-06
-1.36767e-05
3.75137e-06
-1.30325e-05
-9.28713e-06
1.59439e-06
-2.47277e-05
-4.01305e-07
-2.63833e-05
-3.09206e-06
-1.12772e-06
1.18362e-05
-6.18559e-06
-1.31156e-06
1.7958e-05
-8.50711e-06
-4.93525e-07
1.77648e-05
-1.02492e-05
8.66762e-07
1.51615e-05
-1.1757e-05
2.38495e-06
1.10819e-05
-1.3214e-05
3.61578e-06
5.13244e-06
-1.43715e-05
4.00785e-06
-3.53144e-06
-1.39521e-05
3.09488e-06
-1.58341e-05
-9.48914e-06
1.18634e-06
-2.92003e-05
-3.22584e-07
-3.04359e-05
-3.44444e-06
-6.40626e-07
1.2072e-05
-7.087e-06
-7.59204e-07
1.85989e-05
-9.75507e-06
-2.72458e-07
1.84517e-05
-1.14724e-05
5.34133e-07
1.56658e-05
-1.25863e-05
1.41024e-06
1.12961e-05
-1.34536e-05
2.0778e-06
5.00745e-06
-1.41377e-05
2.22395e-06
-4.01179e-06
-1.3654e-05
1.64097e-06
-1.68605e-05
-9.46087e-06
5.8599e-07
-3.08755e-05
-1.62791e-07
-3.20118e-05
-3.59085e-06
-3.75555e-14
1.21175e-05
-7.45972e-06
-2.79932e-13
1.87348e-05
-1.02413e-05
-4.00314e-13
1.85707e-05
-1.18857e-05
-3.3415e-13
1.5707e-05
-1.27697e-05
-1.80925e-13
1.12565e-05
-1.33699e-05
-2.96656e-14
4.90582e-06
-1.39116e-05
8.29401e-14
-4.17687e-06
-1.35041e-05
1.29368e-13
-1.72119e-05
-9.48019e-06
9.97284e-14
-3.14828e-05
2.62719e-14
-3.25959e-05
-3.59085e-06
6.40626e-07
1.21175e-05
-7.45972e-06
7.59203e-07
1.87348e-05
-1.02413e-05
2.72458e-07
1.85707e-05
-1.18857e-05
-5.34133e-07
1.5707e-05
-1.27697e-05
-1.41024e-06
1.12565e-05
-1.33699e-05
-2.0778e-06
4.90582e-06
-1.39116e-05
-2.22395e-06
-4.17687e-06
-1.35041e-05
-1.64097e-06
-1.72119e-05
-9.48019e-06
-5.8599e-07
-3.14828e-05
1.62791e-07
-3.25959e-05
-3.44444e-06
1.12772e-06
1.2072e-05
-7.087e-06
1.31156e-06
1.85989e-05
-9.75507e-06
4.93524e-07
1.84517e-05
-1.14724e-05
-8.66763e-07
1.56658e-05
-1.25863e-05
-2.38495e-06
1.12961e-05
-1.34536e-05
-3.61578e-06
5.00745e-06
-1.41377e-05
-4.00785e-06
-4.01179e-06
-1.3654e-05
-3.09488e-06
-1.68605e-05
-9.46087e-06
-1.18634e-06
-3.08755e-05
3.22584e-07
-3.20118e-05
-3.09206e-06
1.25705e-06
1.18362e-05
-6.18559e-06
1.40338e-06
1.7958e-05
-8.50711e-06
5.56763e-07
1.77648e-05
-1.02492e-05
-8.50231e-07
1.51615e-05
-1.1757e-05
-2.47522e-06
1.10819e-05
-1.3214e-05
-3.90926e-06
5.13244e-06
-1.43715e-05
-4.55833e-06
-3.53144e-06
-1.39521e-05
-3.75137e-06
-1.58341e-05
-9.48914e-06
-1.59439e-06
-2.92003e-05
4.01305e-07
-3.04359e-05
-2.44459e-06
8.2998e-07
1.0841e-05
-4.53803e-06
8.43211e-07
1.56394e-05
-6.09581e-06
3.44443e-07
1.51934e-05
-7.5614e-06
-4.69957e-07
1.29768e-05
-9.35571e-06
-1.4389e-06
9.70693e-06
-1.15521e-05
-2.38135e-06
4.89789e-06
-1.3569e-05
-2.9387e-06
-2.41037e-06
-1.36767e-05
-2.57396e-06
-1.30325e-05
-9.28713e-06
-1.20725e-06
-2.47277e-05
2.8507e-07
-2.63833e-05
-1.26017e-06
7.00915e-06
-1.91506e-06
8.68294e-06
-2.29264e-06
7.9493e-06
-2.9192e-06
6.70907e-06
-4.18978e-06
5.23656e-06
-6.19827e-06
3.11152e-06
-8.4117e-06
-4.58599e-07
-9.20769e-06
-6.11924e-06
-6.49099e-06
-1.28803e-05
-1.50323e-05
-2.50291e-06
-1.09114e-06
1.06032e-05
-2.31044e-06
-1.08081e-06
9.57129e-06
-1.39101e-06
-4.09749e-07
7.43962e-06
-8.30899e-07
6.35853e-07
5.5131e-06
-1.28952e-06
1.86314e-06
3.83205e-06
-3.11401e-06
3.11071e-06
1.8253e-06
-6.15735e-06
4.01721e-06
-1.43247e-06
-8.67824e-06
3.69764e-06
-7.29599e-06
-7.66532e-06
1.65194e-06
-1.55452e-05
-9.89189e-07
-2.17085e-05
-4.0979e-06
-1.52798e-06
1.53758e-05
-4.84769e-06
-1.66371e-06
1.69721e-05
-4.10398e-06
-6.34626e-07
1.46745e-05
-3.14597e-06
9.85603e-07
1.16691e-05
-2.84976e-06
2.84125e-06
8.43261e-06
-3.72676e-06
4.53964e-06
4.34596e-06
-5.84871e-06
5.49431e-06
-1.76552e-06
-8.1211e-06
4.63872e-06
-1.17012e-05
-7.47274e-06
1.67895e-06
-2.5403e-05
-1.34232e-06
-3.35029e-05
-4.72732e-06
-1.29389e-06
1.63294e-05
-6.20171e-06
-1.47327e-06
1.9242e-05
-5.80872e-06
-5.37206e-07
1.72744e-05
-4.65235e-06
9.31144e-07
1.40596e-05
-3.56974e-06
2.5439e-06
1.02966e-05
-3.22075e-06
3.8994e-06
5.42369e-06
-4.06618e-06
4.47185e-06
-1.66355e-06
-5.90298e-06
3.50589e-06
-1.28645e-05
-6.06333e-06
1.07764e-06
-2.84387e-05
-9.84289e-07
-3.68572e-05
-4.98844e-06
-7.09998e-07
1.64766e-05
-6.82676e-06
-8.25668e-07
1.97896e-05
-6.58683e-06
-2.8727e-07
1.79619e-05
-5.25807e-06
5.51319e-07
1.47169e-05
-3.68553e-06
1.44596e-06
1.08215e-05
-2.67196e-06
2.15297e-06
5.74031e-06
-2.96523e-06
2.38319e-06
-1.62985e-06
-4.82405e-06
1.78041e-06
-1.32762e-05
-5.57319e-06
4.98261e-07
-2.9547e-05
-4.6785e-07
-3.81014e-05
-5.07615e-06
-9.43938e-14
1.64837e-05
-7.04529e-06
-3.00676e-13
1.98783e-05
-6.83896e-06
-4.03546e-13
1.80771e-05
-5.40528e-06
-3.47638e-13
1.48246e-05
-3.61296e-06
-2.28175e-13
1.09102e-05
-2.35497e-06
-1.02157e-13
5.8008e-06
-2.51269e-06
1.13664e-14
-1.63596e-06
-4.49645e-06
7.71802e-14
-1.34477e-05
-5.5052e-06
6.6299e-14
-2.99758e-05
8.33778e-15
-3.8569e-05
-5.07615e-06
7.09998e-07
1.64837e-05
-7.04529e-06
8.25667e-07
1.98783e-05
-6.83896e-06
2.87269e-07
1.80771e-05
-5.40528e-06
-5.51319e-07
1.48246e-05
-3.61296e-06
-1.44596e-06
1.09102e-05
-2.35497e-06
-2.15297e-06
5.8008e-06
-2.51269e-06
-2.38319e-06
-1.63596e-06
-4.49645e-06
-1.78041e-06
-1.34477e-05
-5.5052e-06
-4.98261e-07
-2.99758e-05
4.6785e-07
-3.8569e-05
-4.98844e-06
1.29389e-06
1.64766e-05
-6.82676e-06
1.47327e-06
1.97896e-05
-6.58683e-06
5.37206e-07
1.79619e-05
-5.25807e-06
-9.31144e-07
1.47169e-05
-3.68553e-06
-2.54391e-06
1.08215e-05
-2.67196e-06
-3.8994e-06
5.74031e-06
-2.96523e-06
-4.47185e-06
-1.62985e-06
-4.82405e-06
-3.50589e-06
-1.32762e-05
-5.57319e-06
-1.07764e-06
-2.9547e-05
9.84289e-07
-3.81014e-05
-4.72732e-06
1.52798e-06
1.63294e-05
-6.20171e-06
1.66371e-06
1.9242e-05
-5.80872e-06
6.34626e-07
1.72744e-05
-4.65235e-06
-9.85603e-07
1.40596e-05
-3.56974e-06
-2.84125e-06
1.02966e-05
-3.22075e-06
-4.53964e-06
5.42369e-06
-4.06618e-06
-5.49431e-06
-1.66355e-06
-5.90298e-06
-4.63872e-06
-1.28645e-05
-6.06333e-06
-1.67895e-06
-2.84387e-05
1.34232e-06
-3.68572e-05
-4.0979e-06
1.09114e-06
1.53758e-05
-4.84769e-06
1.08081e-06
1.69721e-05
-4.10398e-06
4.09749e-07
1.46745e-05
-3.14597e-06
-6.35854e-07
1.16691e-05
-2.84976e-06
-1.86314e-06
8.43261e-06
-3.72676e-06
-3.11071e-06
4.34596e-06
-5.84871e-06
-4.01721e-06
-1.76552e-06
-8.1211e-06
-3.69764e-06
-1.17012e-05
-7.47274e-06
-1.65194e-06
-2.5403e-05
9.89189e-07
-3.35029e-05
-2.50291e-06
1.06032e-05
-2.31044e-06
9.57129e-06
-1.39101e-06
7.43962e-06
-8.30899e-07
5.5131e-06
-1.28952e-06
3.83205e-06
-3.11401e-06
1.8253e-06
-6.15735e-06
-1.43247e-06
-8.67824e-06
-7.29599e-06
-7.66532e-06
-1.55452e-05
-2.17085e-05
-2.68652e-06
-1.85527e-06
1.5145e-05
4.56856e-07
-1.96782e-06
8.39573e-06
4.46646e-06
-1.19085e-06
4.62087e-06
7.32476e-06
-1.48439e-07
2.80324e-06
8.53077e-06
1.08524e-06
1.5408e-06
7.63117e-06
2.37705e-06
3.47845e-07
4.33966e-06
3.56143e-06
-1.70239e-06
-6.20942e-07
3.47892e-06
-5.81431e-06
-3.4734e-06
9.45354e-07
-1.3638e-05
-2.69316e-06
-2.24887e-05
-4.81096e-06
-2.22259e-06
2.05541e-05
-8.75255e-07
-2.65692e-06
1.37255e-05
4.98642e-06
-1.7669e-06
9.38892e-06
1.01153e-05
-3.17592e-07
6.70931e-06
1.38049e-05
1.34746e-06
4.48084e-06
1.5355e-05
3.00223e-06
2.17066e-06
1.3937e-05
4.2961e-06
-1.08218e-06
9.24231e-06
3.88848e-06
-7.4161e-06
3.06054e-06
7.5041e-07
-1.90263e-05
-2.72369e-06
-3.04119e-05
-5.58312e-06
-1.69639e-06
2.13863e-05
-1.85867e-06
-2.15698e-06
1.50176e-05
4.15037e-06
-1.45385e-06
1.09523e-05
9.95091e-06
-2.72039e-07
8.21353e-06
1.47729e-05
1.07613e-06
5.74597e-06
1.78024e-05
2.34711e-06
3.04931e-06
1.77742e-05
3.22405e-06
-5.63308e-07
1.36027e-05
2.79823e-06
-7.60281e-06
5.66464e-06
4.86038e-07
-2.02362e-05
-1.69813e-06
-3.22181e-05
-5.77778e-06
-8.79086e-07
2.1437e-05
-2.1998e-06
-1.14866e-06
1.52033e-05
3.80135e-06
-7.68285e-07
1.12751e-05
9.80411e-06
-1.34846e-07
8.57696e-06
1.50355e-05
5.81017e-07
6.08517e-06
1.85928e-05
1.23328e-06