/*--------------------------------*- C++ -*----------------------------------*\
  =========                 |
  \\      /  F ield         | OpenFOAM: The Open Source CFD Toolbox
   \\    /   O peration     | Website:  https://openfoam.org
    \\  /    A nd           | Version:  9
     \\/     M anipulation  |
\*---------------------------------------------------------------------------*/
FoamFile
{
    format      ascii;
    class       volVectorField;
    location    "0.54";
    object      U;
}
// * * * * * * * * * * * * * * * * * * * * * * * * * * * * * * * * * * * * * //

dimensions      [0 1 -1 0 0 0 0];

internalField   nonuniform List<vector> 
1000
(
(-1.17647e-05 -0.000466619 0.000348968)
(-0.00149982 -0.000413941 0.00106106)
(-0.00466953 -0.000369037 0.00138455)
(-0.00799473 -0.000475218 0.00150526)
(-0.010809 -0.000769066 0.00144887)
(-0.0122115 -0.00121442 0.00113248)
(-0.0113055 -0.0016614 0.000541158)
(-0.00782353 -0.00183481 -0.000109348)
(-0.00265409 -0.00146973 -0.000297777)
(8.15144e-05 -0.000437609 0.000311457)
(-0.000209746 -0.00162234 0.000596925)
(-0.00351065 -0.00194994 0.00223009)
(-0.0100814 -0.00201621 0.00292109)
(-0.0167674 -0.00234261 0.00297858)
(-0.0221629 -0.00307493 0.00248839)
(-0.02459 -0.00411845 0.00135576)
(-0.0224705 -0.00508748 -0.000304878)
(-0.0154508 -0.00531628 -0.00179803)
(-0.00545843 -0.00423429 -0.00183182)
(-5.68007e-05 -0.00155978 0.000152779)
(-0.000387812 -0.00239425 0.000318042)
(-0.00492441 -0.00331684 0.00229242)
(-0.0136711 -0.0036027 0.00311706)
(-0.022408 -0.00404385 0.00304672)
(-0.0292555 -0.00487363 0.002165)
(-0.0320565 -0.00598153 0.000392025)
(-0.0288406 -0.00687486 -0.00202565)
(-0.0193295 -0.00688116 -0.00391401)
(-0.00630889 -0.00546331 -0.00345003)
(0.000267102 -0.00231987 -0.000119833)
(-0.000501362 -0.00200949 -4.99862e-05)
(-0.00582835 -0.00292038 0.00198308)
(-0.015954 -0.0032173 0.00283282)
(-0.0259614 -0.00357303 0.0026557)
(-0.0336569 -0.00418657 0.00150512)
(-0.0365238 -0.00497032 -0.000687174)
(-0.0323907 -0.00552784 -0.00355158)
(-0.0211804 -0.00541663 -0.00557529)
(-0.00629911 -0.00429842 -0.00461359)
(0.000704068 -0.00193703 -0.000303858)
(-0.000558007 -0.000772217 -0.000275922)
(-0.00627326 -0.00114296 0.00174539)
(-0.0170715 -0.00126552 0.00259288)
(-0.0276889 -0.00139852 0.0023588)
(-0.0357686 -0.00161766 0.00107308)
(-0.0386198 -0.00188921 -0.00132724)
(-0.0339789 -0.00207583 -0.00438232)
(-0.0218995 -0.00201622 -0.00642968)
(-0.00613819 -0.00160113 -0.00518131)
(0.000979345 -0.000740439 -0.000386287)
(-0.000558006 0.000772218 -0.000275921)
(-0.00627326 0.00114295 0.00174539)
(-0.0170715 0.00126551 0.00259288)
(-0.0276889 0.00139852 0.0023588)
(-0.0357686 0.00161766 0.00107308)
(-0.0386198 0.00188921 -0.00132724)
(-0.0339789 0.00207583 -0.00438232)
(-0.0218995 0.00201622 -0.00642968)
(-0.00613819 0.00160113 -0.00518131)
(0.000979345 0.000740439 -0.000386287)
(-0.00050136 0.00200949 -4.99832e-05)
(-0.00582834 0.00292038 0.00198309)
(-0.015954 0.0032173 0.00283282)
(-0.0259614 0.00357303 0.0026557)
(-0.0336569 0.00418656 0.00150512)
(-0.0365238 0.00497032 -0.000687174)
(-0.0323907 0.00552784 -0.00355158)
(-0.0211804 0.00541663 -0.00557529)
(-0.00629911 0.00429842 -0.00461359)
(0.000704068 0.00193703 -0.000303859)
(-0.000387806 0.00239424 0.00031805)
(-0.0049244 0.00331682 0.00229243)
(-0.0136711 0.00360269 0.00311706)
(-0.022408 0.00404385 0.00304672)
(-0.0292555 0.00487362 0.002165)
(-0.0320565 0.00598153 0.000392024)
(-0.0288406 0.00687486 -0.00202565)
(-0.0193295 0.00688116 -0.00391401)
(-0.00630889 0.00546331 -0.00345003)
(0.000267102 0.00231987 -0.000119833)
(-0.000209728 0.00162228 0.000596946)
(-0.00351063 0.00194991 0.00223011)
(-0.0100814 0.0020162 0.00292109)
(-0.0167674 0.00234261 0.00297858)
(-0.0221629 0.00307493 0.00248839)
(-0.02459 0.00411845 0.00135576)
(-0.0224705 0.00508748 -0.000304879)
(-0.0154508 0.00531628 -0.00179803)
(-0.00545843 0.00423429 -0.00183182)
(-5.68002e-05 0.00155978 0.000152779)
(-1.17192e-05 0.000466567 0.000349017)
(-0.00149976 0.000413917 0.00106109)
(-0.00466951 0.000369031 0.00138456)
(-0.00799473 0.000475216 0.00150526)
(-0.010809 0.000769066 0.00144887)
(-0.0122115 0.00121442 0.00113248)
(-0.0113055 0.0016614 0.000541158)
(-0.00782353 0.00183481 -0.000109348)
(-0.00265409 0.00146973 -0.000297777)
(8.15149e-05 0.000437609 0.000311457)
(-0.000653283 -0.00133408 0.00334494)
(-0.00416663 -0.00167938 0.00666741)
(-0.0101795 -0.00171487 0.0079052)
(-0.0162827 -0.00177 0.00801679)
(-0.0213497 -0.00196627 0.00712876)
(-0.0239066 -0.00231422 0.0050163)
(-0.0224655 -0.00267038 0.00176968)
(-0.016366 -0.00269761 -0.00160199)
(-0.006777 -0.00198212 -0.00297192)
(-0.000686505 -0.000282515 -0.00067422)
(-0.00195977 -0.00387776 0.00555691)
(-0.0106801 -0.00537121 0.0126008)
(-0.0246957 -0.00566141 0.0150388)
(-0.0383461 -0.00586166 0.0144207)
(-0.0489352 -0.00636959 0.0111231)
(-0.0535146 -0.00717828 0.00502203)
(-0.0494357 -0.00791222 -0.00305506)
(-0.0358313 -0.00772256 -0.0101402)
(-0.0155718 -0.00577074 -0.0111271)
(-0.00216508 -0.00153111 -0.00306759)
(-0.00293264 -0.0050747 0.00540082)
(-0.0153802 -0.00757023 0.0137624)
(-0.0348613 -0.00814837 0.0164747)
(-0.0532863 -0.00842742 0.0149366)
(-0.066929 -0.00898122 0.00954475)
(-0.0720622 -0.00978102 0.000372471)
(-0.0655348 -0.0103351 -0.0109143)
(-0.0466789 -0.00981118 -0.0197012)
(-0.0198025 -0.00746145 -0.0188447)
(-0.00254579 -0.0026868 -0.00524744)
(-0.00353036 -0.00405264 0.00463056)
(-0.0183623 -0.00625504 0.0132161)
(-0.0413161 -0.00678903 0.015831)
(-0.0626181 -0.00700441 0.0135423)
(-0.0778949 -0.00737845 0.00669044)
(-0.0829416 -0.00788613 -0.00444502)
(-0.0744505 -0.00811072 -0.0175775)
(-0.0521817 -0.00758159 -0.0269339)
(-0.0214389 -0.00582775 -0.0242302)
(-0.00239977 -0.00234384 -0.00667347)
(-0.00380882 -0.00152566 0.0040897)
(-0.0197965 -0.00238734 0.0126246)
(-0.0444356 -0.00259907 0.015122)
(-0.0670868 -0.00267574 0.0124287)
(-0.0830586 -0.0027989 0.00484364)
(-0.0879221 -0.00296001 -0.00722138)
(-0.0783573 -0.00300731 -0.0211327)
(-0.0544176 -0.00279199 -0.0305877)
(-0.0219257 -0.00215929 -0.0268335)
(-0.00222367 -0.000909942 -0.00733278)
(-0.00380882 0.00152566 0.0040897)
(-0.0197965 0.00238733 0.0126246)
(-0.0444356 0.00259906 0.015122)
(-0.0670868 0.00267573 0.0124287)
(-0.0830586 0.0027989 0.00484364)
(-0.0879221 0.00296001 -0.00722138)
(-0.0783573 0.00300731 -0.0211327)
(-0.0544176 0.00279199 -0.0305877)
(-0.0219257 0.00215929 -0.0268335)
(-0.00222367 0.000909942 -0.00733278)
(-0.00353036 0.00405263 0.00463057)
(-0.0183623 0.00625502 0.0132161)
(-0.0413161 0.00678902 0.015831)
(-0.0626181 0.0070044 0.0135423)
(-0.0778949 0.00737845 0.00669044)
(-0.0829416 0.00788613 -0.00444502)
(-0.0744505 0.00811071 -0.0175775)
(-0.0521817 0.00758159 -0.0269339)
(-0.0214389 0.00582775 -0.0242302)
(-0.00239977 0.00234384 -0.00667347)
(-0.00293263 0.00507469 0.00540083)
(-0.0153802 0.00757021 0.0137624)
(-0.0348613 0.00814836 0.0164747)
(-0.0532863 0.00842741 0.0149366)
(-0.066929 0.00898122 0.00954475)
(-0.0720622 0.00978102 0.000372472)
(-0.0655348 0.0103351 -0.0109143)
(-0.0466789 0.00981118 -0.0197012)
(-0.0198024 0.00746145 -0.0188447)
(-0.00254579 0.0026868 -0.00524744)
(-0.00195975 0.00387773 0.00555694)
(-0.0106801 0.00537119 0.0126008)
(-0.0246957 0.0056614 0.0150388)
(-0.0383461 0.00586166 0.0144208)
(-0.0489352 0.00636959 0.0111231)
(-0.0535146 0.00717828 0.00502203)
(-0.0494357 0.00791222 -0.00305506)
(-0.0358313 0.00772256 -0.0101402)
(-0.0155718 0.00577074 -0.0111271)
(-0.00216508 0.00153111 -0.00306759)
(-0.000653262 0.00133405 0.003345)
(-0.0041666 0.00167936 0.00666744)
(-0.0101795 0.00171486 0.00790521)
(-0.0162827 0.00177 0.0080168)
(-0.0213497 0.00196627 0.00712876)
(-0.0239066 0.00231422 0.0050163)
(-0.0224655 0.00267038 0.00176968)
(-0.016366 0.00269761 -0.00160199)
(-0.006777 0.00198212 -0.00297191)
(-0.000686504 0.000282515 -0.00067422)
(-0.00112179 -0.00209661 0.00969958)
(-0.00604272 -0.00273584 0.0173173)
(-0.0139197 -0.00274688 0.019732)
(-0.0218872 -0.0026129 0.0194323)
(-0.0288548 -0.00255568 0.0167733)
(-0.0331465 -0.00268616 0.0113421)
(-0.0326493 -0.0029264 0.00331194)
(-0.0256367 -0.00295607 -0.00524388)
(-0.012412 -0.00217763 -0.00958162)
(-0.00216854 -4.11687e-05 -0.00482088)
(-0.00342022 -0.00582995 0.0161184)
(-0.0164104 -0.00813538 0.0317051)
(-0.0359371 -0.00828116 0.0361814)
(-0.0546634 -0.00784498 0.0336359)
(-0.0695898 -0.0075151 0.025031)
(-0.0772384 -0.00754302 0.0102895)
(-0.0739154 -0.00772818 -0.00885777)
(-0.0570544 -0.00746306 -0.0263706)
(-0.0281828 -0.00560881 -0.0308957)
(-0.00539985 -0.000931569 -0.0131352)
(-0.00517698 -0.00732719 0.0171625)
(-0.0241841 -0.010846 0.0355213)
(-0.0519742 -0.0111426 0.0401718)
(-0.0776122 -0.0104545 0.0351453)
(-0.0967997 -0.00972788 0.0215902)
(-0.105147 -0.00924695 1.08756e-05)
(-0.0985696 -0.00887632 -0.0260892)
(-0.0746609 -0.00823984 -0.0476424)
(-0.0362216 -0.0063997 -0.049032)
(-0.00666391 -0.00195085 -0.0194527)
(-0.00628591 -0.00571124 0.0165723)
(-0.0291853 -0.00870615 0.0354481)
(-0.0622226 -0.00896684 0.0396111)
(-0.0919032 -0.00833452 0.0326298)
(-0.113121 -0.00757592 0.0157245)
(-0.121105 -0.00691061 -0.00999846)
(-0.111833 -0.0063347 -0.0397987)
(-0.0834376 -0.00575021 -0.0626771)
(-0.0396896 -0.00458974 -0.060866)
(-0.0069258 -0.00171718 -0.0233157)
(-0.00680843 -0.00212469 0.0159813)
(-0.0315914 -0.00327772 0.0347892)
(-0.0671494 -0.00337688 0.0385609)
(-0.0986633 -0.00312034 0.0305457)
(-0.120638 -0.00279839 0.0120086)
(-0.128183 -0.00249575 -0.0155694)
(-0.117436 -0.00223203 -0.0468227)
(-0.0869216 -0.002006 -0.0699353)
(-0.0408998 -0.00162892 -0.0663431)
(-0.00691581 -0.000665811 -0.0250391)
(-0.00680843 0.00212469 0.0159813)
(-0.0315914 0.00327772 0.0347892)
(-0.0671494 0.00337687 0.0385609)
(-0.0986633 0.00312034 0.0305457)
(-0.120638 0.00279839 0.0120086)
(-0.128183 0.00249574 -0.0155694)
(-0.117436 0.00223203 -0.0468227)
(-0.0869216 0.002006 -0.0699353)
(-0.0408998 0.00162892 -0.0663431)
(-0.00691581 0.000665812 -0.0250391)
(-0.00628591 0.00571124 0.0165723)
(-0.0291853 0.00870614 0.0354481)
(-0.0622226 0.00896683 0.0396111)
(-0.0919032 0.00833452 0.0326299)
(-0.113121 0.00757591 0.0157245)
(-0.121105 0.00691061 -0.00999845)
(-0.111833 0.0063347 -0.0397987)
(-0.0834376 0.00575021 -0.0626771)
(-0.0396896 0.00458974 -0.060866)
(-0.0069258 0.00171718 -0.0233157)
(-0.00517697 0.00732718 0.0171625)
(-0.0241841 0.010846 0.0355213)
(-0.0519742 0.0111426 0.0401718)
(-0.0776122 0.0104545 0.0351453)
(-0.0967997 0.00972788 0.0215902)
(-0.105147 0.00924695 1.08781e-05)
(-0.0985696 0.00887632 -0.0260892)
(-0.0746608 0.00823984 -0.0476424)
(-0.0362216 0.0063997 -0.049032)
(-0.00666391 0.00195085 -0.0194527)
(-0.00342022 0.00582994 0.0161185)
(-0.0164104 0.00813536 0.0317051)
(-0.0359371 0.00828115 0.0361814)
(-0.0546634 0.00784498 0.0336359)
(-0.0695898 0.0075151 0.025031)
(-0.0772384 0.00754302 0.0102896)
(-0.0739154 0.00772818 -0.00885776)
(-0.0570544 0.00746306 -0.0263706)
(-0.0281828 0.00560881 -0.0308957)
(-0.00539985 0.000931569 -0.0131352)
(-0.00112179 0.0020966 0.0096996)
(-0.00604271 0.00273583 0.0173173)
(-0.0139197 0.00274688 0.019732)
(-0.0218872 0.0026129 0.0194323)
(-0.0288548 0.00255568 0.0167733)
(-0.0331465 0.00268616 0.0113421)
(-0.0326493 0.0029264 0.00331194)
(-0.0256367 0.00295607 -0.00524388)
(-0.012412 0.00217763 -0.00958162)
(-0.00216854 4.11685e-05 -0.00482088)
(-0.00151303 -0.00279943 0.0181663)
(-0.00747183 -0.00360679 0.030887)
(-0.0166375 -0.00341319 0.0343283)
(-0.0260928 -0.00285519 0.0332904)
(-0.0352258 -0.00228078 0.0285094)
(-0.0424594 -0.0019629 0.0191594)
(-0.044904 -0.0020326 0.00499638)
(-0.0388521 -0.00234091 -0.0111984)
(-0.0222553 -0.00201242 -0.0212037)
(-0.0054112 0.000118124 -0.0136616)
(-0.0046529 -0.00761185 0.0302399)
(-0.0210536 -0.0103551 0.0560531)
(-0.044839 -0.00979623 0.0623122)
(-0.0677395 -0.00794691 0.0570734)
(-0.0872802 -0.00586037 0.0421768)
(-0.100023 -0.00427136 0.0171987)
(-0.101007 -0.00360736 -0.0161542)
(-0.0844222 -0.00394468 -0.0493006)
(-0.0479686 -0.00373816 -0.0625163)
(-0.011621 -0.00024089 -0.0327473)
(-0.00707196 -0.00934876 0.0332259)
(-0.03142 -0.0133665 0.0636378)
(-0.065745 -0.0125813 0.0698769)
(-0.0971651 -0.00978611 0.0604064)
(-0.121839 -0.00642293 0.0375989)
(-0.135479 -0.0034789 0.001976)
(-0.132903 -0.00181608 -0.0424919)
(-0.108387 -0.00199727 -0.0831137)
(-0.0605568 -0.0027055 -0.0934819)
(-0.0142484 -0.000790269 -0.0452583)
(-0.00860783 -0.00717137 0.0332999)
(-0.038092 -0.0105116 0.0647093)
(-0.0790131 -0.00982499 0.0700125)
(-0.115143 -0.00738664 0.0573719)
(-0.141816 -0.00438008 0.029547)
(-0.154628 -0.00164607 -0.0119655)
(-0.148815 -9.35553e-05 -0.0615819)
(-0.119393 -0.000285657 -0.10458)
(-0.0658815 -0.0012902 -0.111617)
(-0.0151411 -0.000670995 -0.0521689)
(-0.00932988 -0.00264549 0.0329165)
(-0.0412766 -0.00391604 0.0643339)
(-0.0853014 -0.00364328 0.0689538)
(-0.123444 -0.00268685 0.0546945)
(-0.150668 -0.00150075 0.0245671)
(-0.162648 -0.000417526 -0.0193427)
(-0.155055 0.000193641 -0.0707203)
(-0.123457 0.00010088 -0.114172)
(-0.0677626 -0.000348446 -0.119394)
(-0.0154016 -0.000253405 -0.0550485)
(-0.00932988 0.00264549 0.0329165)
(-0.0412766 0.00391604 0.0643339)
(-0.0853014 0.00364327 0.0689538)
(-0.123444 0.00268684 0.0546945)
(-0.150668 0.00150074 0.0245671)
(-0.162648 0.000417523 -0.0193427)
(-0.155055 -0.000193642 -0.0707203)
(-0.123457 -0.000100881 -0.114172)
(-0.0677626 0.000348446 -0.119394)
(-0.0154016 0.000253406 -0.0550485)
(-0.00860783 0.00717137 0.0332999)
(-0.038092 0.0105116 0.0647093)
(-0.0790131 0.00982499 0.0700125)
(-0.115143 0.00738663 0.0573719)
(-0.141816 0.00438007 0.029547)
(-0.154628 0.00164607 -0.0119655)
(-0.148815 9.35544e-05 -0.0615819)
(-0.119393 0.000285657 -0.10458)
(-0.0658815 0.0012902 -0.111617)
(-0.0151411 0.000670995 -0.0521689)
(-0.00707196 0.00934876 0.0332259)
(-0.03142 0.0133665 0.0636378)
(-0.065745 0.0125813 0.0698769)
(-0.0971651 0.0097861 0.0604064)
(-0.121839 0.00642293 0.0375989)
(-0.135479 0.0034789 0.001976)
(-0.132903 0.00181608 -0.0424919)
(-0.108387 0.00199727 -0.0831137)
(-0.0605568 0.0027055 -0.0934819)
(-0.0142484 0.000790269 -0.0452583)
(-0.0046529 0.00761184 0.0302399)
(-0.0210536 0.0103551 0.0560531)
(-0.044839 0.00979622 0.0623122)
(-0.0677395 0.0079469 0.0570734)
(-0.0872802 0.00586037 0.0421768)
(-0.100023 0.00427136 0.0171987)
(-0.101007 0.00360736 -0.0161542)
(-0.0844222 0.00394469 -0.0493006)
(-0.0479686 0.00373816 -0.0625163)
(-0.011621 0.00024089 -0.0327473)
(-0.00151303 0.00279943 0.0181663)
(-0.00747182 0.00360679 0.0308871)
(-0.0166375 0.00341319 0.0343283)
(-0.0260928 0.00285519 0.0332904)
(-0.0352258 0.00228078 0.0285094)
(-0.0424594 0.0019629 0.0191594)
(-0.044904 0.0020326 0.00499638)
(-0.0388521 0.00234091 -0.0111984)
(-0.0222553 0.00201242 -0.0212037)
(-0.0054112 -0.000118125 -0.0136616)
(-0.00208908 -0.00339689 0.0286773)
(-0.00890055 -0.00419813 0.0466935)
(-0.0185687 -0.00352154 0.0505244)
(-0.0287734 -0.00214898 0.0482082)
(-0.0399923 -0.000585219 0.041008)
(-0.0513151 0.000667595 0.0274154)
(-0.0591796 0.0010474 0.00596328)
(-0.0570448 0.000211664 -0.0207844)
(-0.0387576 -0.000834818 -0.0408183)
(-0.011953 2.22376e-05 -0.0312758)
(-0.00596887 -0.00906678 0.0475906)
(-0.0249973 -0.0117603 0.0844486)
(-0.0512751 -0.00971339 0.0917764)
(-0.0766649 -0.00533134 0.0832206)
(-0.100218 -0.000151084 0.0618045)
(-0.119439 0.00431474 0.0261113)
(-0.128343 0.006367 -0.0237053)
(-0.116973 0.00457909 -0.0783594)
(-0.0771981 0.000705322 -0.109202)
(-0.0229651 3.03913e-05 -0.0688074)
(-0.00883337 -0.0109182 0.0530506)
(-0.0371055 -0.0147996 0.0966996)
(-0.0753274 -0.011924 0.104)
(-0.109922 -0.0056074 0.0898485)
(-0.138642 0.00195367 0.0582668)
(-0.158385 0.00853333 0.009004)
(-0.163316 0.0116316 -0.0555991)
(-0.14395 0.00922565 -0.122034)
(-0.0933778 0.0033171 -0.153286)
(-0.0273132 8.53159e-05 -0.0901155)
(-0.01061 -0.00825716 0.0541337)
(-0.0447498 -0.0114342 0.0994743)
(-0.0902111 -0.00901605 0.105589)
(-0.129435 -0.0037101 0.0875282)
(-0.159435 0.00260961 0.0501405)
(-0.177294 0.00800498 -0.00560866)
(-0.178299 0.010318 -0.0760093)
(-0.154321 0.00809495 -0.146103)
(-0.099466 0.00315762 -0.175806)
(-0.0289558 0.000142164 -0.100596)
(-0.0114278 -0.00302278 0.0541452)
(-0.0483222 -0.00421975 0.0996779)
(-0.0970734 -0.00328616 0.104938)
(-0.138073 -0.00124796 0.0849724)
(-0.168049 0.00116471 0.0451483)
(-0.184424 0.00319112 -0.0128793)
(-0.183373 0.00399574 -0.0849206)
(-0.157613 0.00309364 -0.155827)
(-0.101532 0.00123018 -0.184628)
(-0.0295563 6.87853e-05 -0.104666)
(-0.0114278 0.00302278 0.0541452)
(-0.0483222 0.00421975 0.0996779)
(-0.0970734 0.00328615 0.104938)
(-0.138073 0.00124795 0.0849724)
(-0.168049 -0.00116472 0.0451483)
(-0.184424 -0.00319113 -0.0128793)
(-0.183373 -0.00399574 -0.0849206)
(-0.157613 -0.00309364 -0.155827)
(-0.101532 -0.00123018 -0.184628)
(-0.0295563 -6.87848e-05 -0.104666)
(-0.01061 0.00825716 0.0541337)
(-0.0447498 0.0114342 0.0994743)
(-0.0902111 0.00901604 0.105589)
(-0.129435 0.00371009 0.0875282)
(-0.159435 -0.00260961 0.0501405)
(-0.177294 -0.00800499 -0.00560866)
(-0.178299 -0.010318 -0.0760093)
(-0.154321 -0.00809495 -0.146103)
(-0.099466 -0.00315762 -0.175806)
(-0.0289558 -0.000142163 -0.100596)
(-0.00883337 0.0109182 0.0530506)
(-0.0371055 0.0147996 0.0966996)
(-0.0753274 0.011924 0.104)
(-0.109922 0.0056074 0.0898485)
(-0.138642 -0.00195368 0.0582668)
(-0.158385 -0.00853333 0.00900401)
(-0.163316 -0.0116316 -0.0555991)
(-0.14395 -0.00922565 -0.122034)
(-0.0933778 -0.0033171 -0.153286)
(-0.0273132 -8.5316e-05 -0.0901155)
(-0.00596887 0.00906678 0.0475906)
(-0.0249973 0.0117603 0.0844486)
(-0.0512751 0.00971339 0.0917764)
(-0.0766649 0.00533134 0.0832206)
(-0.100218 0.000151085 0.0618045)
(-0.119439 -0.00431474 0.0261113)
(-0.128343 -0.006367 -0.0237053)
(-0.116973 -0.00457908 -0.0783594)
(-0.0771981 -0.000705322 -0.109202)
(-0.0229651 -3.03915e-05 -0.0688074)
(-0.00208908 0.00339689 0.0286773)
(-0.00890055 0.00419813 0.0466935)
(-0.0185687 0.00352154 0.0505244)
(-0.0287734 0.00214898 0.0482082)
(-0.0399923 0.000585219 0.041008)
(-0.0513151 -0.000667595 0.0274154)
(-0.0591796 -0.0010474 0.00596328)
(-0.0570448 -0.000211664 -0.0207844)
(-0.0387576 0.000834818 -0.0408183)
(-0.011953 -2.22376e-05 -0.0312758)
(-0.00345287 -0.00390591 0.0415312)
(-0.0112545 -0.00446012 0.0635424)
(-0.0199487 -0.00293615 0.0660602)
(-0.0291024 -0.000262852 0.0613416)
(-0.0410934 0.00293967 0.0513792)
(-0.0565647 0.00587937 0.0337239)
(-0.0720267 0.00737426 0.00483302)
(-0.0779187 0.00602206 -0.0349056)
(-0.062264 0.00241032 -0.0705263)
(-0.0227479 -0.000326794 -0.0633315)
(-0.0080675 -0.0101695 0.0680652)
(-0.0289807 -0.0122107 0.114831)
(-0.0545309 -0.00779169 0.121378)
(-0.0783872 0.000270467 0.108703)
(-0.102401 0.00988317 0.0813806)
(-0.126369 0.0185493 0.036515)
(-0.144637 0.0227788 -0.0290562)
(-0.143888 0.0188387 -0.109163)
(-0.110053 0.0080336 -0.169153)
(-0.0386785 -0.000793854 -0.129447)
(-0.011042 -0.0119562 0.0760707)
(-0.0414554 -0.0150301 0.132133)
(-0.0789524 -0.00912835 0.139183)
(-0.111163 0.00181799 0.120562)
(-0.138748 0.0145791 0.0824133)
(-0.161264 0.0254179 0.0230235)
(-0.174003 0.0296968 -0.0592181)
(-0.165304 0.0236482 -0.155169)
(-0.124152 0.0100001 -0.222027)
(-0.0434432 -0.000455768 -0.161756)
(-0.0127679 -0.00889664 0.0781699)
(-0.0489842 -0.011425 0.136825)
(-0.0933584 -0.00665471 0.142909)
(-0.129142 0.0021703 0.120519)
(-0.156395 0.0122365 0.0770355)
(-0.175319 0.0203037 0.011929)
(-0.183137 0.0227284 -0.0757792)
(-0.170422 0.0173274 -0.176646)
(-0.12802 0.00708013 -0.245409)
(-0.045215 -0.000151024 -0.176044)
(-0.0135253 -0.00322909 0.0785866)
(-0.0523706 -0.00417933 0.137717)
(-0.0997096 -0.00237698 0.14302)
(-0.136591 0.000940911 0.118889)
(-0.162924 0.00467123 0.0734304)
(-0.179565 0.00755338 0.00671613)
(-0.185091 0.00825382 -0.0822398)
(-0.171254 0.00613048 -0.184429)
(-0.12924 0.00245425 -0.253898)
(-0.0459697 -1.77383e-05 -0.181365)
(-0.0135253 0.00322909 0.0785866)
(-0.0523706 0.00417932 0.137717)
(-0.0997096 0.00237697 0.14302)
(-0.136591 -0.000940918 0.118889)
(-0.162924 -0.00467123 0.0734304)
(-0.179565 -0.00755338 0.00671613)
(-0.185091 -0.00825382 -0.0822398)
(-0.171254 -0.00613048 -0.184429)
(-0.12924 -0.00245425 -0.253898)
(-0.0459697 1.77388e-05 -0.181365)
(-0.0127679 0.00889663 0.0781699)
(-0.0489842 0.011425 0.136825)
(-0.0933584 0.0066547 0.142909)
(-0.129142 -0.0021703 0.120519)
(-0.156395 -0.0122365 0.0770355)
(-0.175319 -0.0203037 0.011929)
(-0.183137 -0.0227284 -0.0757792)
(-0.170422 -0.0173274 -0.176646)
(-0.12802 -0.00708013 -0.245409)
(-0.045215 0.000151024 -0.176044)
(-0.011042 0.0119562 0.0760707)
(-0.0414554 0.0150301 0.132133)
(-0.0789524 0.00912835 0.139183)
(-0.111163 -0.00181799 0.120562)
(-0.138748 -0.0145791 0.0824133)
(-0.161264 -0.0254179 0.0230235)
(-0.174003 -0.0296968 -0.0592181)
(-0.165304 -0.0236482 -0.155169)
(-0.124152 -0.0100001 -0.222027)
(-0.0434432 0.000455767 -0.161756)
(-0.0080675 0.0101695 0.0680652)
(-0.0289807 0.0122107 0.114831)
(-0.0545309 0.00779169 0.121378)
(-0.0783872 -0.000270469 0.108703)
(-0.102401 -0.00988317 0.0813806)
(-0.126369 -0.0185493 0.036515)
(-0.144637 -0.0227788 -0.0290562)
(-0.143888 -0.0188387 -0.109163)
(-0.110053 -0.0080336 -0.169153)
(-0.0386785 0.000793854 -0.129447)
(-0.00345287 0.00390591 0.0415312)
(-0.0112545 0.00446011 0.0635424)
(-0.0199487 0.00293615 0.0660602)
(-0.0291024 0.000262851 0.0613416)
(-0.0410934 -0.00293966 0.0513792)
(-0.0565647 -0.00587937 0.0337239)
(-0.0720267 -0.00737426 0.00483302)
(-0.0779187 -0.00602206 -0.0349056)
(-0.062264 -0.00241032 -0.0705263)
(-0.0227479 0.000326794 -0.0633315)
(-0.0072004 -0.00462353 0.0587998)
(-0.0168375 -0.00474741 0.0798999)
(-0.0212172 -0.00205148 0.0775288)
(-0.0253343 0.00229167 0.0683369)
(-0.0342697 0.00752559 0.0551467)
(-0.0511774 0.0127385 0.0343667)
(-0.0743754 0.016074 -0.00017152)
(-0.0922056 0.0145159 -0.053168)
(-0.0874506 0.00728478 -0.109508)
(-0.0361152 -0.00132259 -0.116644)
(-0.0129951 -0.0114395 0.0933866)
(-0.0355778 -0.0124056 0.144226)
(-0.0542031 -0.00505966 0.145635)
(-0.0684676 0.00706853 0.127284)
(-0.0842532 0.0213667 0.0955242)
(-0.105104 0.0346862 0.0459901)
(-0.128617 0.0418092 -0.0288618)
(-0.140952 0.0357998 -0.132052)
(-0.127195 0.0160765 -0.231)
(-0.0499789 -0.00419055 -0.219694)
(-0.0157584 -0.0128803 0.103185)
(-0.0467092 -0.0148181 0.1659)
(-0.075559 -0.00565919 0.168978)
(-0.0954479 0.00965893 0.1458)
(-0.111229 0.0269962 0.104618)
(-0.126585 0.0415856 0.0420762)
(-0.141118 0.047079 -0.0484656)
(-0.144405 0.0373026 -0.169641)
(-0.128987 0.0147948 -0.283422)
(-0.0509704 -0.00399638 -0.261626)
(-0.0171291 -0.009344 0.105724)
(-0.0528522 -0.011039 0.171989)
(-0.0871899 -0.00395954 0.174897)
(-0.108898 0.00785168 0.149095)
(-0.122396 0.0207875 0.104126)
(-0.132242 0.0308069 0.0374683)
(-0.140605 0.0332407 -0.057377)
(-0.140162 0.0247707 -0.184274)
(-0.127215 0.00898596 -0.30381)
(-0.0514763 -0.00248065 -0.278601)
(-0.0176709 -0.00334945 0.106275)
(-0.0554387 -0.00399727 0.173312)
(-0.0919637 -0.00138132 0.175784)
(-0.113918 0.00296065 0.148831)
(-0.125708 0.0076233 0.102695)
(-0.132681 0.0110596 0.0352096)
(-0.138618 0.0116162 -0.0604274)
(-0.137608 0.00836563 -0.189155)
(-0.126757 0.00289934 -0.311019)
(-0.0520196 -0.000794273 -0.284863)
(-0.0176709 0.00334945 0.106275)
(-0.0554387 0.00399726 0.173312)
(-0.0919637 0.00138131 0.175784)
(-0.113918 -0.00296066 0.148831)
(-0.125708 -0.00762331 0.102695)
(-0.132681 -0.0110596 0.0352096)
(-0.138618 -0.0116162 -0.0604274)
(-0.137608 -0.00836563 -0.189155)
(-0.126757 -0.00289934 -0.311019)
(-0.0520196 0.000794273 -0.284863)
(-0.0171291 0.009344 0.105724)
(-0.0528522 0.011039 0.171989)
(-0.0871899 0.00395953 0.174897)
(-0.108898 -0.00785169 0.149095)
(-0.122396 -0.0207876 0.104126)
(-0.132242 -0.0308069 0.0374683)
(-0.140605 -0.0332407 -0.057377)
(-0.140162 -0.0247707 -0.184274)
(-0.127215 -0.00898596 -0.30381)
(-0.0514763 0.00248065 -0.278601)
(-0.0157584 0.0128803 0.103185)
(-0.0467092 0.0148181 0.1659)
(-0.075559 0.00565919 0.168978)
(-0.0954479 -0.00965893 0.1458)
(-0.111229 -0.0269962 0.104618)
(-0.126585 -0.0415856 0.0420762)
(-0.141118 -0.047079 -0.0484656)
(-0.144405 -0.0373026 -0.169641)
(-0.128987 -0.0147948 -0.283422)
(-0.0509704 0.00399638 -0.261626)
(-0.0129951 0.0114395 0.0933866)
(-0.0355778 0.0124056 0.144226)
(-0.0542031 0.00505966 0.145635)
(-0.0684676 -0.00706854 0.127284)
(-0.0842532 -0.0213667 0.0955242)
(-0.105104 -0.0346862 0.0459901)
(-0.128617 -0.0418092 -0.0288618)
(-0.140952 -0.0357998 -0.132052)
(-0.127195 -0.0160765 -0.231)
(-0.0499789 0.00419055 -0.219694)
(-0.00720039 0.00462353 0.0587998)
(-0.0168375 0.00474741 0.0798999)
(-0.0212172 0.00205148 0.0775287)
(-0.0253343 -0.00229167 0.0683369)
(-0.0342697 -0.00752559 0.0551467)
(-0.0511774 -0.0127385 0.0343667)
(-0.0743754 -0.016074 -0.000171519)
(-0.0922056 -0.0145159 -0.053168)
(-0.0874506 -0.00728478 -0.109508)
(-0.0361152 0.00132259 -0.116644)
(-0.0166016 -0.00634321 0.0817246)
(-0.0287326 -0.00641782 0.0921851)
(-0.0189154 -0.00266403 0.0804238)
(-0.00973689 0.00321991 0.0644507)
(-0.00805487 0.0101738 0.0479298)
(-0.0192801 0.0174982 0.0261401)
(-0.0457759 0.0231805 -0.0102633)
(-0.0762587 0.0219107 -0.0728103)
(-0.0964241 0.0103923 -0.152102)
(-0.0418142 -0.00597456 -0.195407)
(-0.0258671 -0.0144572 0.122136)
(-0.050949 -0.0151913 0.16586)
(-0.0470775 -0.00582114 0.156816)
(-0.0361802 0.00895796 0.130379)
(-0.028427 0.0260597 0.0962415)
(-0.0306357 0.0427164 0.0492493)
(-0.0477016 0.0536563 -0.0225462)
(-0.0689906 0.0476865 -0.135817)
(-0.0953901 0.0193797 -0.273492)
(-0.0359712 -0.0140969 -0.325864)
(-0.0287836 -0.0151406 0.131817)
(-0.0607634 -0.0169826 0.190272)
(-0.063779 -0.00624048 0.184772)
(-0.0538527 0.0107608 0.155353)
(-0.0411964 0.0297001 0.114388)
(-0.0325765 0.0462264 0.0575835)
(-0.0359717 0.0541978 -0.0261644)
(-0.045162 0.0438586 -0.155945)
(-0.0755064 0.0143965 -0.314154)
(-0.0277079 -0.0121872 -0.367223)
(-0.0297977 -0.010491 0.133909)
(-0.0650988 -0.0121322 0.196933)
(-0.0716315 -0.00422776 0.192586)
(-0.0617264 0.00816922 0.162193)
(-0.0456549 0.0215325 0.119205)
(-0.0305547 0.0322733 0.0597723)
(-0.0270059 0.036027 -0.0270948)
(-0.0319352 0.0272512 -0.162372)
(-0.0673638 0.00788495 -0.328488)
(-0.0259866 -0.00715438 -0.38252)
(-0.0300915 -0.00367611 0.134267)
(-0.0666255 -0.00430345 0.198317)
(-0.0743712 -0.00144909 0.194089)
(-0.0641119 0.00299092 0.163332)
(-0.0462957 0.00767536 0.119923)
(-0.0284721 0.0112637 0.0601128)
(-0.0226645 0.0122433 -0.0273812)
(-0.0271488 0.0089413 -0.164605)
(-0.0656252 0.0024459 -0.333734)
(-0.0262122 -0.00223714 -0.38817)
(-0.0300915 0.00367611 0.134267)
(-0.0666255 0.00430345 0.198317)
(-0.0743712 0.00144908 0.194089)
(-0.0641119 -0.00299092 0.163332)
(-0.0462957 -0.00767537 0.119923)
(-0.0284721 -0.0112637 0.0601128)
(-0.0226645 -0.0122433 -0.0273812)
(-0.0271488 -0.0089413 -0.164605)
(-0.0656252 -0.0024459 -0.333734)
(-0.0262122 0.00223714 -0.38817)
(-0.0297977 0.010491 0.133909)
(-0.0650988 0.0121322 0.196933)
(-0.0716315 0.00422775 0.192586)
(-0.0617264 -0.00816922 0.162193)
(-0.0456549 -0.0215325 0.119205)
(-0.0305547 -0.0322733 0.0597723)
(-0.0270059 -0.036027 -0.0270948)
(-0.0319352 -0.0272512 -0.162372)
(-0.0673638 -0.00788495 -0.328488)
(-0.0259866 0.00715438 -0.38252)
(-0.0287836 0.0151406 0.131817)
(-0.0607634 0.0169826 0.190272)
(-0.063779 0.00624047 0.184772)
(-0.0538527 -0.0107608 0.155353)
(-0.0411964 -0.0297001 0.114388)
(-0.0325765 -0.0462264 0.0575835)
(-0.0359717 -0.0541978 -0.0261644)
(-0.045162 -0.0438586 -0.155945)
(-0.0755064 -0.0143965 -0.314154)
(-0.0277079 0.0121872 -0.367223)
(-0.0258671 0.0144572 0.122136)
(-0.050949 0.0151913 0.16586)
(-0.0470775 0.00582114 0.156816)
(-0.0361802 -0.00895796 0.130379)
(-0.028427 -0.0260597 0.0962415)
(-0.0306357 -0.0427164 0.0492493)
(-0.0477016 -0.0536563 -0.0225462)
(-0.0689906 -0.0476865 -0.135817)
(-0.0953901 -0.0193797 -0.273492)
(-0.0359712 0.0140969 -0.325864)
(-0.0166016 0.00634321 0.0817246)
(-0.0287326 0.00641782 0.0921851)
(-0.0189154 0.00266403 0.0804238)
(-0.00973689 -0.00321991 0.0644507)
(-0.00805487 -0.0101738 0.0479298)
(-0.0192801 -0.0174982 0.0261401)
(-0.0457759 -0.0231805 -0.0102633)
(-0.0762587 -0.0219107 -0.0728103)
(-0.0964241 -0.0103923 -0.152102)
(-0.0418142 0.00597456 -0.195407)
(-0.0238683 -0.0112176 0.150333)
(-0.0205735 -0.0119592 0.0981746)
(0.0274114 -0.00740009 0.0628818)
(0.0615068 -0.000890902 0.0416135)
(0.0823433 0.00647124 0.025296)
(0.0848123 0.0143725 0.00756716)
(0.0627758 0.0216686 -0.020959)
(0.0254085 0.0209657 -0.0784607)
(-0.0421674 0.00531643 -0.17368)
(-0.00683503 -0.0177471 -0.259498)
(-0.0426464 -0.0229698 0.209739)
(-0.0423278 -0.0259462 0.1693)
(0.0218588 -0.0167088 0.127528)
(0.077406 -0.00262846 0.0956072)
(0.122065 0.0136169 0.0662955)
(0.15022 0.0302732 0.0327424)
(0.148706 0.0447702 -0.016574)
(0.129886 0.04303 -0.107013)
(0.039449 0.0105412 -0.256022)
(0.0435121 -0.0316419 -0.369311)
(-0.0479789 -0.020821 0.219874)
(-0.0520813 -0.0258056 0.189487)
(0.0110636 -0.0172859 0.150745)
(0.0711485 -0.00318271 0.117672)
(0.124671 0.013173 0.0846379)
(0.166738 0.0288786 0.0452275)
(0.179446 0.040442 -0.0110934)
(0.17509 0.0359939 -0.110275)
(0.0799707 0.00636127 -0.275017)
(0.0628715 -0.0223777 -0.395006)
(-0.0490037 -0.0132961 0.22085)
(-0.0548996 -0.017184 0.193553)
(0.00690161 -0.0115028 0.156465)
(0.0680825 -0.00200426 0.123741)
(0.124578 0.00880454 0.0900944)
(0.171821 0.0187481 0.0491373)
(0.189429 0.0251634 -0.00948802)
(0.18926 0.0212919 -0.111629)
(0.0899158 0.00378137 -0.281755)
(0.0659069 -0.0116763 -0.403729)
(-0.0490421 -0.00448075 0.220628)
(-0.0553246 -0.00589061 0.193893)
(0.00615153 -0.00391564 0.157227)
(0.0678149 -0.000634549 0.124698)
(0.125304 0.00303966 0.0910901)
(0.17409 0.00633303 0.0499371)
(0.192829 0.00830522 -0.0093204)
(0.192939 0.00687768 -0.11262)
(0.0909959 0.00128268 -0.284566)
(0.0655206 -0.0034558 -0.406908)
(-0.0490421 0.00448074 0.220628)
(-0.0553246 0.00589061 0.193893)
(0.00615153 0.00391563 0.157227)
(0.0678149 0.000634543 0.124698)