/*--------------------------------*- C++ -*----------------------------------*\
  =========                 |
  \\      /  F ield         | OpenFOAM: The Open Source CFD Toolbox
   \\    /   O peration     | Website:  https://openfoam.org
    \\  /    A nd           | Version:  9
     \\/     M anipulation  |
\*---------------------------------------------------------------------------*/
FoamFile
{
    format      ascii;
    class       volVectorField;
    location    "0.06";
    object      U;
}
// * * * * * * * * * * * * * * * * * * * * * * * * * * * * * * * * * * * * * //

dimensions      [0 1 -1 0 0 0 0];

internalField   nonuniform List<vector> 
1000
(
(-0.00103613 -6.20995e-05 0.00103108)
(-0.00401059 4.39292e-05 0.00152916)
(-0.00756893 6.35304e-05 0.00134604)
(-0.0102867 3.96968e-05 0.00093804)
(-0.0118607 -5.80877e-06 0.000425371)
(-0.0121068 -6.12839e-05 -0.0001499)
(-0.0109197 -0.00011728 -0.000747491)
(-0.00831285 -0.000157391 -0.00129288)
(-0.0045451 -0.000145852 -0.00160085)
(-0.00121226 -1.45334e-05 -0.00112325)
(-0.00153909 -0.000137526 0.00147021)
(-0.00593949 9.42147e-06 0.00229768)
(-0.011156 4.7359e-05 0.00202683)
(-0.0150819 2.41414e-05 0.00139069)
(-0.017313 -3.42397e-05 0.00059316)
(-0.0176163 -0.000112828 -0.000297381)
(-0.0158626 -0.000193123 -0.00121504)
(-0.0120705 -0.000246971 -0.00204204)
(-0.00658697 -0.000221946 -0.0024744)
(-0.00174669 -2.49544e-05 -0.00163456)
(-0.00160219 -0.000135772 0.00150074)
(-0.00624648 -7.98121e-05 0.00239816)
(-0.0117802 -4.5921e-05 0.0021219)
(-0.0159309 -3.95246e-05 0.00145188)
(-0.0182873 -5.47944e-05 0.000609955)
(-0.0186042 -8.51391e-05 -0.000328769)
(-0.0167433 -0.000117289 -0.00129593)
(-0.0127232 -0.000133715 -0.00216641)
(-0.00690223 -0.000110868 -0.00261227)
(-0.00180736 -1.69614e-05 -0.00169499)
(-0.00159075 -9.27111e-05 0.00147756)
(-0.00625651 -7.46085e-05 0.00238193)
(-0.0118505 -5.16477e-05 0.00211022)
(-0.0160469 -4.12298e-05 0.0014441)
(-0.0184299 -4.22733e-05 0.000605304)
(-0.0187517 -5.04309e-05 -0.000331951)
(-0.0168722 -5.95906e-05 -0.0012993)
(-0.0128082 -6.15744e-05 -0.00217061)
(-0.00692104 -4.73925e-05 -0.00261454)
(-0.00179776 -9.26553e-06 -0.00168631)
(-0.0015817 -3.2742e-05 0.00146379)
(-0.00624361 -2.96029e-05 0.00236784)
(-0.0118482 -2.19938e-05 0.00209928)
(-0.0160546 -1.7171e-05 0.00143711)
(-0.0184449 -1.57048e-05 0.000602343)
(-0.0187695 -1.66049e-05 -0.000331342)
(-0.0168868 -1.79828e-05 -0.0012959)
(-0.0128137 -1.74381e-05 -0.00216519)
(-0.00691302 -1.27809e-05 -0.00260757)
(-0.00179001 -2.8565e-06 -0.00167877)
(-0.00158169 3.28415e-05 0.00146379)
(-0.00624361 2.95956e-05 0.00236784)
(-0.0118482 2.19999e-05 0.00209928)
(-0.0160546 1.71837e-05 0.00143711)
(-0.0184449 1.57157e-05 0.000602342)
(-0.0187695 1.66138e-05 -0.000331342)
(-0.0168868 1.79922e-05 -0.0012959)
(-0.0128137 1.74484e-05 -0.00216519)
(-0.00691302 1.27948e-05 -0.00260757)
(-0.00179002 2.87022e-06 -0.00167877)
(-0.00159074 9.28571e-05 0.00147756)
(-0.00625652 7.46097e-05 0.00238194)
(-0.0118505 5.16618e-05 0.00211022)
(-0.0160469 4.12465e-05 0.00144409)
(-0.0184299 4.22856e-05 0.000605302)
(-0.0187518 5.04401e-05 -0.000331951)
(-0.0168721 5.95997e-05 -0.0012993)
(-0.0128082 6.15838e-05 -0.00217061)
(-0.00692104 4.7405e-05 -0.00261453)
(-0.00179776 9.27627e-06 -0.00168631)
(-0.00160217 0.000135887 0.00150075)
(-0.00624649 7.9793e-05 0.00239819)
(-0.0117802 4.59342e-05 0.0021219)
(-0.0159309 3.95392e-05 0.00145187)
(-0.0182873 5.48067e-05 0.00060995)
(-0.0186042 8.51486e-05 -0.00032877)
(-0.0167433 0.000117298 -0.00129593)
(-0.0127232 0.000133723 -0.00216641)
(-0.00690223 0.000110878 -0.00261226)
(-0.00180736 1.6968e-05 -0.00169499)
(-0.00153889 0.000137645 0.00147041)
(-0.00593938 -9.50458e-06 0.00229782)
(-0.011156 -4.73094e-05 0.00202686)
(-0.0150819 -2.41064e-05 0.00139069)
(-0.017313 3.42657e-05 0.000593161)
(-0.0176163 0.000112846 -0.000297379)
(-0.0158626 0.000193135 -0.00121504)
(-0.0120705 0.000246979 -0.00204203)
(-0.00658697 0.000221955 -0.0024744)
(-0.00174668 2.49619e-05 -0.00163455)
(-0.00103593 6.19226e-05 0.00103127)
(-0.00401068 -4.40997e-05 0.00152935)
(-0.00756904 -6.35242e-05 0.00134605)
(-0.0102868 -3.9684e-05 0.000938039)
(-0.0118608 5.81921e-06 0.000425371)
(-0.0121068 6.12885e-05 -0.000149897)
(-0.0109198 0.000117282 -0.000747483)
(-0.00831287 0.000157392 -0.00129287)
(-0.00454511 0.000145856 -0.00160085)
(-0.00121226 1.45397e-05 -0.00112325)
(-0.00175103 -0.000225172 0.00426608)
(-0.0064438 -0.000106836 0.00596467)
(-0.0118111 -5.56972e-05 0.00519181)
(-0.0158661 -4.10718e-05 0.00358886)
(-0.0182011 -4.55553e-05 0.00159745)
(-0.0185702 -6.30047e-05 -0.000617921)
(-0.0168221 -8.4919e-05 -0.00290519)
(-0.0129507 -9.56369e-05 -0.00499495)
(-0.00728382 -5.487e-05 -0.00622049)
(-0.00203472 0.000108467 -0.00461235)
(-0.00275105 -0.000399457 0.00609639)
(-0.0100176 -0.000232944 0.00892057)
(-0.0182057 -0.000141044 0.00777582)
(-0.0243007 -0.000103505 0.00529083)
(-0.0277375 -9.97237e-05 0.00221011)
(-0.0281934 -0.000120028 -0.00119744)
(-0.0254813 -0.000148191 -0.00468872)
(-0.0196068 -0.00015642 -0.00783823)
(-0.0110358 -8.54365e-05 -0.00955849)
(-0.00308437 0.00015788 -0.00671073)
(-0.00289971 -0.000287806 0.0063081)
(-0.0106348 -0.000226778 0.0093664)
(-0.0193856 -0.000158511 0.00817932)
(-0.0258768 -0.000115657 0.00554894)
(-0.0295263 -9.67185e-05 0.002282)
(-0.0299979 -9.59516e-05 -0.00133016)
(-0.027096 -0.000101125 -0.00502939)
(-0.0208266 -9.32916e-05 -0.00835991)
(-0.0116741 -4.54653e-05 -0.0101462)
(-0.00323624 6.8155e-05 -0.00702836)
(-0.002893 -0.000168967 0.00627082)
(-0.010675 -0.000154478 0.00935922)
(-0.0195222 -0.000114006 0.00818167)
(-0.0260852 -8.32235e-05 0.00555066)
(-0.0297772 -6.56676e-05 0.00227702)
(-0.0302572 -5.84059e-05 -0.00134769)
(-0.0273257 -5.48862e-05 -0.00506387)
(-0.0209865 -4.54011e-05 -0.00841081)
(-0.0117282 -1.95548e-05 -0.0101991)
(-0.00323279 2.54152e-05 -0.00704055)
(-0.0028805 -5.59071e-05 0.00623769)
(-0.0106571 -5.44352e-05 0.00932746)
(-0.0195188 -4.12363e-05 0.00815859)
(-0.0260958 -3.01234e-05 0.00553682)
(-0.0297984 -2.30455e-05 0.00227147)
(-0.0302828 -1.93239e-05 -0.00134685)
(-0.0273476 -1.69421e-05 -0.00505898)
(-0.0209962 -1.30258e-05 -0.0084038)
(-0.0117192 -5.04701e-06 -0.01019)
(-0.00322297 6.36965e-06 -0.00702839)
(-0.0028805 5.58978e-05 0.00623769)
(-0.0106571 5.43545e-05 0.00932746)
(-0.0195188 4.12098e-05 0.00815859)
(-0.0260958 3.012e-05 0.00553681)
(-0.0297984 2.30443e-05 0.00227147)
(-0.0302828 1.93209e-05 -0.00134685)
(-0.0273476 1.69411e-05 -0.00505898)
(-0.0209962 1.30258e-05 -0.0084038)
(-0.0117192 5.05291e-06 -0.01019)
(-0.00322297 -6.355e-06 -0.00702839)
(-0.00289299 0.000168971 0.00627081)
(-0.010675 0.000154399 0.00935923)
(-0.0195222 0.000113983 0.00818166)
(-0.0260852 8.32203e-05 0.00555064)
(-0.0297772 6.56653e-05 0.00227701)
(-0.0302572 5.84022e-05 -0.00134769)
(-0.0273257 5.48849e-05 -0.00506386)
(-0.0209865 4.5401e-05 -0.0084108)
(-0.0117282 1.95613e-05 -0.0101991)
(-0.00323279 -2.54026e-05 -0.00704055)
(-0.00289968 0.000287784 0.00630808)
(-0.0106347 0.000226683 0.00936643)
(-0.0193856 0.000158485 0.00817931)
(-0.0258768 0.000115651 0.00554892)
(-0.0295263 9.67135e-05 0.00228199)
(-0.0299978 9.59455e-05 -0.00133017)
(-0.027096 0.000101123 -0.00502939)
(-0.0208266 9.32927e-05 -0.0083599)
(-0.0116741 4.54741e-05 -0.0101462)
(-0.00323624 -6.81441e-05 -0.00702836)
(-0.00275091 0.000399351 0.00609651)
(-0.0100175 0.000232829 0.0089207)
(-0.0182056 0.000141028 0.00777584)
(-0.0243006 0.000103507 0.00529083)
(-0.0277374 9.97243e-05 0.0022101)
(-0.0281933 0.000120023 -0.00119745)
(-0.0254812 0.000148189 -0.00468872)
(-0.0196068 0.000156422 -0.00783823)
(-0.0110358 8.5446e-05 -0.00955849)
(-0.00308436 -0.00015787 -0.00671074)
(-0.00175082 0.000224982 0.00426601)
(-0.00644367 0.000106712 0.00596478)
(-0.0118111 5.56657e-05 0.00519178)
(-0.0158661 4.10605e-05 0.00358885)
(-0.0182011 4.55473e-05 0.00159744)
(-0.0185702 6.2994e-05 -0.000617917)
(-0.0168221 8.49127e-05 -0.00290518)
(-0.0129507 9.56374e-05 -0.00499495)
(-0.00728382 5.48782e-05 -0.0062205)
(-0.00203471 -0.000108457 -0.00461235)
(-0.00221734 -0.000347172 0.00912367)
(-0.0080312 -0.000213776 0.0123223)
(-0.0145406 -0.000139492 0.0106226)
(-0.0194003 -0.000100384 0.00731602)
(-0.0222366 -8.11726e-05 0.00327368)
(-0.0228127 -7.89233e-05 -0.00119866)
(-0.0209143 -8.56272e-05 -0.00584644)
(-0.0163972 -8.49154e-05 -0.0101757)
(-0.00946527 -2.78133e-05 -0.0128696)
(-0.00272349 0.000170723 -0.00992796)
(-0.0035183 -0.000609832 0.0130065)
(-0.0126013 -0.00042343 0.0183267)
(-0.0226141 -0.000287998 0.0158142)
(-0.0299728 -0.00020428 0.010715)
(-0.0341689 -0.000156817 0.0044905)
(-0.0349005 -0.000140572 -0.00235626)
(-0.0318975 -0.000140387 -0.00941784)
(-0.0249719 -0.000127345 -0.0159125)
(-0.0144101 -2.97824e-05 -0.0196952)
(-0.00414099 0.000259529 -0.0144177)
(-0.00371303 -0.00042985 0.0135302)
(-0.0133928 -0.000365544 0.0192876)
(-0.0241094 -0.000263327 0.0166665)
(-0.0319575 -0.000182993 0.0112602)
(-0.0364185 -0.000129419 0.00464883)
(-0.0371793 -9.98238e-05 -0.00262466)
(-0.0339583 -8.30459e-05 -0.0101234)
(-0.0265563 -5.92657e-05 -0.017007)
(-0.0152659 3.42381e-06 -0.0209536)
(-0.00435493 0.000129026 -0.0151647)
(-0.00370404 -0.000246898 0.0135086)
(-0.0134393 -0.000235183 0.0193307)
(-0.0242712 -0.00017452 0.0167218)
(-0.0322057 -0.000120179 0.0113002)
(-0.0367203 -8.07924e-05 0.00465825)
(-0.0374959 -5.56737e-05 -0.00265753)
(-0.034245 -3.9072e-05 -0.0102073)
(-0.0267634 -2.07459e-05 -0.0171401)
(-0.0153445 1.14301e-05 -0.0211047)
(-0.0043561 5.66581e-05 -0.0152396)
(-0.00368708 -8.04111e-05 0.0134632)
(-0.0134125 -8.03212e-05 0.0192914)
(-0.0242595 -6.04494e-05 0.0166973)
(-0.0322099 -4.14876e-05 0.0112889)
(-0.0367378 -2.71489e-05 0.00465679)
(-0.0375209 -1.74654e-05 -0.00265338)
(-0.0342688 -1.07441e-05 -0.0102022)
(-0.0267755 -4.07754e-06 -0.0171379)
(-0.0153357 5.54186e-06 -0.0211037)
(-0.0043455 1.60073e-05 -0.0152335)
(-0.00368708 8.04101e-05 0.0134632)
(-0.0134125 8.02858e-05 0.0192914)
(-0.0242595 6.04586e-05 0.0166973)
(-0.0322099 4.15072e-05 0.0112889)
(-0.0367378 2.71597e-05 0.00465678)
(-0.0375209 1.74671e-05 -0.00265339)
(-0.0342688 1.07428e-05 -0.0102022)
(-0.0267755 4.07041e-06 -0.0171379)
(-0.0153357 -5.54948e-06 -0.0211037)
(-0.0043455 -1.60007e-05 -0.0152335)
(-0.00370404 0.000246905 0.0135086)
(-0.0134393 0.000235151 0.0193307)
(-0.0242713 0.000174529 0.0167218)
(-0.0322057 0.000120195 0.0113002)
(-0.0367203 8.07975e-05 0.00465823)
(-0.0374959 5.56703e-05 -0.00265754)
(-0.034245 3.90673e-05 -0.0102073)
(-0.0267634 2.07377e-05 -0.0171401)
(-0.0153445 -1.14362e-05 -0.0211047)
(-0.0043561 -5.66528e-05 -0.0152396)
(-0.00371302 0.000429854 0.0135302)
(-0.0133928 0.000365507 0.0192876)
(-0.0241094 0.000263334 0.0166665)
(-0.0319575 0.000183001 0.0112602)
(-0.0364186 0.000129415 0.00464881)
(-0.0371793 9.98105e-05 -0.00262468)
(-0.0339583 8.30355e-05 -0.0101234)
(-0.0265563 5.92569e-05 -0.017007)
(-0.0152659 -3.4264e-06 -0.0209537)
(-0.00435493 -0.000129022 -0.0151647)
(-0.00351826 0.000609863 0.0130066)
(-0.0126013 0.000423403 0.0183268)
(-0.0226141 0.000288005 0.0158142)
(-0.0299727 0.000204284 0.010715)
(-0.0341689 0.000156806 0.00449049)
(-0.0349004 0.000140549 -0.00235628)
(-0.0318975 0.000140369 -0.00941786)
(-0.0249719 0.000127334 -0.0159125)
(-0.0144101 2.97799e-05 -0.0196952)
(-0.00414098 -0.000259526 -0.0144177)
(-0.00221732 0.000347165 0.00912358)
(-0.00803121 0.000213742 0.0123223)
(-0.0145406 0.000139481 0.0106226)
(-0.0194003 0.000100374 0.00731601)
(-0.0222366 8.11562e-05 0.00327367)
(-0.0228127 7.89013e-05 -0.00119867)
(-0.0209144 8.56122e-05 -0.00584645)
(-0.0163972 8.4911e-05 -0.0101757)
(-0.00946528 2.78175e-05 -0.0128696)
(-0.00272348 -0.000170716 -0.00992796)
(-0.00294615 -0.000498287 0.0152335)
(-0.0103698 -0.00033674 0.0201192)
(-0.018386 -0.000231009 0.0171531)
(-0.0242647 -0.000164577 0.0117979)
(-0.0277701 -0.000123368 0.00541769)
(-0.0287391 -0.000106365 -0.00160931)
(-0.0268591 -0.000106077 -0.00904616)
(-0.0216878 -0.000104004 -0.0162655)
(-0.0130961 -3.31301e-05 -0.0211726)
(-0.0039696 0.000211106 -0.0169602)
(-0.00466091 -0.000875724 0.0215833)
(-0.0162537 -0.000650595 0.0297274)
(-0.0286034 -0.000453486 0.0253604)
(-0.0375128 -0.000312644 0.0171399)
(-0.0426952 -0.000218077 0.00734903)
(-0.0439696 -0.000168195 -0.0033764)
(-0.0409342 -0.000149589 -0.0146403)
(-0.0329709 -0.000130714 -0.0254341)
(-0.019872 -1.41012e-05 -0.0323315)
(-0.00599801 0.000330461 -0.0245764)
(-0.00491254 -0.000616913 0.0224544)
(-0.0172545 -0.000540852 0.0312732)
(-0.0304714 -0.000386461 0.0267204)
(-0.0399759 -0.000253024 0.0180141)
(-0.0454883 -0.00015439 0.0076214)
(-0.0468251 -9.09049e-05 -0.00376921)
(-0.0435676 -5.39107e-05 -0.0157307)
(-0.0350585 -2.20812e-05 -0.0271766)
(-0.0210626 4.68945e-05 -0.0343966)
(-0.00631926 0.000179333 -0.025875)
(-0.00489689 -0.000351892 0.0224428)
(-0.0172989 -0.000339233 0.031368)
(-0.0306525 -0.000245999 0.0268365)
(-0.0402619 -0.000156591 0.0181065)
(-0.0458439 -8.69216e-05 0.00766446)
(-0.047209 -3.88942e-05 -0.00379528)
(-0.0439294 -8.66261e-06 -0.0158444)
(-0.0353358 1.47308e-05 -0.027383)
(-0.0211882 4.80358e-05 -0.0346503)
(-0.00633487 8.67894e-05 -0.0260274)
(-0.00487254 -0.000113834 0.0223818)
(-0.0172563 -0.000114221 0.0313202)
(-0.0306249 -8.34667e-05 0.0268139)
(-0.0402534 -5.24893e-05 0.0181051)
(-0.0458537 -2.76455e-05 0.00767753)
(-0.0472322 -9.93812e-06 -0.00377564)
(-0.0439574 1.68518e-06 -0.0158267)
(-0.035355 9.78863e-06 -0.027375)
(-0.0211851 1.93761e-05 -0.0346517)
(-0.00632638 2.622e-05 -0.0260283)
(-0.00487254 0.000113836 0.0223818)
(-0.0172563 0.000114207 0.0313202)
(-0.0306249 8.34837e-05 0.0268139)
(-0.0402534 5.25095e-05 0.0181051)
(-0.0458537 2.76534e-05 0.00767753)
(-0.0472322 9.93542e-06 -0.00377564)
(-0.0439574 -1.6903e-06 -0.0158267)
(-0.035355 -9.7998e-06 -0.027375)
(-0.0211851 -1.9388e-05 -0.0346517)
(-0.00632638 -2.62166e-05 -0.0260283)
(-0.00489689 0.000351896 0.0224428)
(-0.017299 0.00033922 0.0313681)
(-0.0306525 0.000246014 0.0268365)
(-0.0402619 0.000156606 0.0181065)
(-0.0458439 8.69217e-05 0.00766445)
(-0.047209 3.88847e-05 -0.00379529)
(-0.0439295 8.65422e-06 -0.0158444)
(-0.0353358 -1.47414e-05 -0.027383)
(-0.0211882 -4.80443e-05 -0.0346503)
(-0.00633487 -8.67856e-05 -0.0260274)
(-0.00491254 0.000616917 0.0224544)
(-0.0172545 0.00054084 0.0312732)
(-0.0304714 0.000386475 0.0267204)
(-0.0399759 0.000253032 0.0180141)
(-0.0454883 0.000154381 0.00762139)
(-0.0468251 9.08849e-05 -0.00376921)
(-0.0435676 5.38983e-05 -0.0157307)
(-0.0350585 2.20727e-05 -0.0271766)
(-0.0210626 -4.68986e-05 -0.0343965)
(-0.00631925 -0.000179329 -0.025875)
(-0.00466089 0.000875748 0.0215833)
(-0.0162537 0.000650598 0.0297274)
(-0.0286034 0.000453504 0.0253605)
(-0.0375128 0.000312648 0.0171399)
(-0.0426952 0.000218059 0.00734903)
(-0.0439696 0.000168164 -0.0033764)
(-0.0409342 0.000149572 -0.0146403)
(-0.0329709 0.000130708 -0.0254341)
(-0.019872 1.41011e-05 -0.0323315)
(-0.005998 -0.000330458 -0.0245764)
(-0.00294615 0.000498295 0.0152333)
(-0.0103698 0.000336738 0.0201192)
(-0.0183859 0.000231013 0.0171531)
(-0.0242647 0.000164571 0.0117979)
(-0.0277701 0.000123352 0.00541768)
(-0.0287391 0.000106343 -0.00160932)
(-0.0268592 0.000106066 -0.00904617)
(-0.0216878 0.000104008 -0.0162655)
(-0.0130961 3.31415e-05 -0.0211726)
(-0.00396959 -0.000211097 -0.0169602)
(-0.0042628 -0.000729483 0.0235168)
(-0.0142362 -0.000517013 0.0301665)
(-0.0242876 -0.000350615 0.0252785)
(-0.0314294 -0.000234361 0.0173401)
(-0.0357922 -0.000157066 0.00826762)
(-0.0374239 -0.00011759 -0.00164086)
(-0.0359104 -0.000109171 -0.0124107)
(-0.030278 -0.000114249 -0.0235534)
(-0.019639 -3.72308e-05 -0.0321301)
(-0.00645212 0.000228616 -0.0272741)
(-0.00667294 -0.00127307 0.033046)
(-0.0221807 -0.000973864 0.0442419)
(-0.0376868 -0.000661592 0.0371026)
(-0.048518 -0.0004199 0.0249875)
(-0.0549601 -0.000248483 0.0111112)
(-0.0571632 -0.000147419 -0.00397713)
(-0.0545962 -0.000106079 -0.0202542)
(-0.0458733 -9.59283e-05 -0.0368819)
(-0.0296793 1.85181e-05 -0.0490001)
(-0.00969307 0.000368873 -0.0395045)
(-0.00701641 -0.000885106 0.0343356)
(-0.0234923 -0.000778965 0.0464886)
(-0.0400843 -0.00053126 0.0390692)
(-0.0516463 -0.000308256 0.0262695)
(-0.0585067 -0.000137804 0.0115622)
(-0.0608352 -2.34131e-05 -0.00444922)
(-0.0580807 3.85592e-05 -0.0217317)
(-0.0487712 6.72893e-05 -0.0393732)
(-0.0314949 0.000120823 -0.0521014)
(-0.0102471 0.000219199 -0.0416275)
(-0.0069892 -0.000498065 0.0343286)
(-0.0235265 -0.00047634 0.0466432)
(-0.0402827 -0.000326446 0.0392677)
(-0.051977 -0.000179676 0.0264465)
(-0.0589323 -6.31454e-05 0.0116787)
(-0.0613139 1.84679e-05 -0.00442453)
(-0.0585602 6.53568e-05 -0.0218303)
(-0.0491723 8.7803e-05 -0.0396237)
(-0.031727 0.000109453 -0.0524628)
(-0.0103072 0.00011704 -0.041897)
(-0.00695281 -0.000159701 0.0342471)
(-0.0234571 -0.000158368 0.0465861)
(-0.0402273 -0.000108982 0.0392542)
(-0.0519467 -5.8583e-05 0.0264689)
(-0.0589296 -1.76603e-05 0.0117252)
(-0.061335 1.14755e-05 -0.0043667)
(-0.0585971 2.92085e-05 -0.0217754)
(-0.0492093 3.74747e-05 -0.0395889)
(-0.0317457 4.22864e-05 -0.0524558)
(-0.0103097 3.75439e-05 -0.0419094)
(-0.00695281 0.000159702 0.0342471)
(-0.0234571 0.00015837 0.0465861)
(-0.0402273 0.000109005 0.0392542)
(-0.0519467 5.86043e-05 0.0264689)
(-0.0589296 1.76693e-05 0.0117252)
(-0.061335 -1.14737e-05 -0.0043667)
(-0.0585971 -2.91996e-05 -0.0217754)
(-0.0492093 -3.74678e-05 -0.0395889)
(-0.0317457 -4.22822e-05 -0.0524558)
(-0.0103097 -3.75348e-05 -0.0419094)
(-0.0069892 0.000498068 0.0343286)
(-0.0235265 0.000476343 0.0466432)
(-0.0402828 0.000326467 0.0392677)
(-0.0519771 0.000179692 0.0264465)
(-0.0589323 6.3148e-05 0.0116787)
(-0.0613139 -1.84705e-05 -0.00442453)
(-0.0585601 -6.53494e-05 -0.0218302)
(-0.0491723 -8.77927e-05 -0.0396237)
(-0.031727 -0.000109443 -0.0524628)
(-0.0103072 -0.000117027 -0.041897)
(-0.00701641 0.000885115 0.0343356)
(-0.0234923 0.000778974 0.0464887)
(-0.0400843 0.000531281 0.0390692)
(-0.0516464 0.000308264 0.0262695)
(-0.0585068 0.0001378 0.0115622)
(-0.0608352 2.34053e-05 -0.00444922)
(-0.0580807 -3.85483e-05 -0.0217316)
(-0.0487711 -6.72707e-05 -0.0393731)
(-0.0314949 -0.000120807 -0.0521014)
(-0.0102471 -0.000219184 -0.0416275)
(-0.00667294 0.0012731 0.033046)
(-0.0221807 0.000973892 0.044242)
(-0.0376868 0.000661617 0.0371026)
(-0.0485181 0.0004199 0.0249875)
(-0.0549601 0.000248465 0.0111112)
(-0.0571632 0.000147401 -0.00397713)
(-0.0545962 0.000106092 -0.0202541)
(-0.0458733 9.59574e-05 -0.0368819)
(-0.0296793 -1.84987e-05 -0.0490001)
(-0.00969308 -0.000368866 -0.0395045)
(-0.0042628 0.000729502 0.0235168)
(-0.0142361 0.000517031 0.0301665)
(-0.0242876 0.000350624 0.0252785)
(-0.0314294 0.000234352 0.0173401)
(-0.0357923 0.000157049 0.0082676)
(-0.037424 0.000117576 -0.00164088)
(-0.0359104 0.000109183 -0.0124107)
(-0.0302781 0.000114281 -0.0235534)
(-0.019639 3.72601e-05 -0.0321301)
(-0.00645212 -0.000228605 -0.0272741)
(-0.0067322 -0.00110044 0.0356177)
(-0.0206961 -0.000785442 0.043479)
(-0.033075 -0.000484027 0.0353652)
(-0.0413882 -0.000263887 0.0240599)
(-0.0465977 -0.000116337 0.0119761)
(-0.0492246 -2.83889e-05 -0.00097039)
(-0.04885 6.58701e-06 -0.0155035)
(-0.0437023 -1.60166e-05 -0.0319055)
(-0.0313977 2.88751e-05 -0.0466794)
(-0.0114361 0.000180618 -0.0437896)
(-0.0103403 -0.0018891 0.049509)
(-0.0318759 -0.0014366 0.0632477)
(-0.0510582 -0.000883385 0.0515723)
(-0.0637045 -0.000444542 0.0344743)
(-0.0713788 -0.000132597 0.0160721)
(-0.0749668 6.58935e-05 -0.00359762)
(-0.0739685 0.000157139 -0.0255412)
(-0.0658494 0.000138436 -0.0500061)
(-0.047166 0.000181866 -0.0710847)
(-0.017038 0.000312257 -0.0634891)
(-0.0108335 -0.00127442 0.051337)
(-0.0336406 -0.00109776 0.066366)
(-0.0541757 -0.0006737 0.0542925)
(-0.0677035 -0.000292413 0.036292)
(-0.0758968 -2.08772e-06 0.0168248)
(-0.0797095 0.000195393 -0.00402329)
(-0.0786332 0.00029949 -0.0273025)
(-0.0699779 0.000308722 -0.0532722)
(-0.0500996 0.000291601 -0.0754922)
(-0.0180611 0.000224049 -0.066965)
(-0.0107861 -0.000700346 0.0513332)
(-0.0336453 -0.000652056 0.0665987)
(-0.0543764 -0.000401944 0.0546132)
(-0.0680753 -0.000159972 0.0366083)
(-0.0764006 3.09633e-05 0.0170813)
(-0.0803027 0.000165245 -0.00387175)
(-0.0792733 0.000241524 -0.0273024)
(-0.0705847 0.000254835 -0.0535034)
(-0.0505581 0.000230687 -0.0759521)
(-0.0182309 0.000140717 -0.0674359)
(-0.0107302 -0.000221626 0.0512264)
(-0.0335306 -0.00021386 0.0665338)
(-0.0542726 -0.000132601 0.0546213)
(-0.0680075 -5.08981e-05 0.0366754)
(-0.0763749 1.49473e-05 0.0171884)
(-0.0803173 6.20559e-05 -0.00374385)
(-0.0793252 8.92359e-05 -0.0271737)
(-0.0706595 9.45211e-05 -0.0534093)
(-0.0506326 8.42079e-05 -0.0759183)
(-0.0182649 4.86823e-05 -0.0674738)
(-0.0107302 0.000221622 0.0512264)
(-0.0335306 0.000213863 0.0665338)
(-0.0542726 0.000132612 0.0546213)
(-0.0680075 5.09039e-05 0.0366754)
(-0.0763749 -1.49484e-05 0.0171884)
(-0.0803173 -6.20507e-05 -0.00374385)
(-0.0793252 -8.92111e-05 -0.0271737)
(-0.0706595 -9.45054e-05 -0.0534093)
(-0.0506326 -8.42082e-05 -0.0759183)
(-0.0182649 -4.8673e-05 -0.0674738)
(-0.0107861 0.000700346 0.0513332)
(-0.0336453 0.000652059 0.0665987)
(-0.0543764 0.000401951 0.0546131)
(-0.0680753 0.00015997 0.0366082)
(-0.0764006 -3.09716e-05 0.0170813)
(-0.0803027 -0.000165246 -0.00387174)
(-0.0792733 -0.000241504 -0.0273024)
(-0.0705847 -0.000254816 -0.0535034)
(-0.0505581 -0.000230682 -0.0759521)
(-0.018231 -0.000140704 -0.0674359)
(-0.0108335 0.00127443 0.051337)
(-0.0336406 0.00109776 0.066366)
(-0.0541757 0.000673698 0.0542925)
(-0.0677036 0.000292394 0.036292)
(-0.0758968 2.06876e-06 0.0168248)
(-0.0797095 -0.000195401 -0.00402327)
(-0.0786332 -0.000299471 -0.0273025)
(-0.0699779 -0.000308705 -0.0532722)
(-0.0500996 -0.000291604 -0.0754922)
(-0.0180611 -0.000224041 -0.066965)
(-0.0103403 0.00188913 0.049509)
(-0.0318759 0.00143661 0.0632477)
(-0.0510582 0.000883376 0.0515723)
(-0.0637045 0.000444504 0.0344742)
(-0.0713788 0.000132563 0.0160721)
(-0.0749668 -6.59044e-05 -0.00359761)
(-0.0739685 -0.000157108 -0.0255411)
(-0.0658495 -0.000138405 -0.0500061)
(-0.047166 -0.000181874 -0.0710848)
(-0.0170381 -0.000312268 -0.0634892)
(-0.00673221 0.00110046 0.0356177)
(-0.0206961 0.00078545 0.043479)
(-0.033075 0.000484013 0.0353652)
(-0.0413882 0.000263849 0.0240598)
(-0.0465978 0.000116308 0.0119761)
(-0.0492246 2.83811e-05 -0.00097041)
(-0.04885 -6.55968e-06 -0.0155035)
(-0.0437023 1.60537e-05 -0.0319055)
(-0.0313977 -2.88625e-05 -0.0466794)
(-0.0114361 -0.000180623 -0.0437896)
(-0.0116454 -0.00168614 0.0548607)
(-0.0317521 -0.0011424 0.0609355)
(-0.045446 -0.000531588 0.0471173)
(-0.053716 -0.000101849 0.0314276)
(-0.0590517 0.000176107 0.0162824)
(-0.0627603 0.000372147 0.000726894)
(-0.0647016 0.000494519 -0.0172542)
(-0.0621921 0.000485346 -0.0400086)
(-0.0510369 0.000448268 -0.0646652)
(-0.0206261 8.95152e-05 -0.0716795)
(-0.017377 -0.00283224 0.0752264)
(-0.0479677 -0.00203961 0.0880734)
(-0.0695027 -0.00096876 0.0685167)
(-0.0821614 -0.000156483 0.0450593)
(-0.089881 0.000398545 0.0221094)
(-0.0948003 0.000792948 -0.0014953)
(-0.0968505 0.00103906 -0.0285829)
(-0.0921818 0.00103049 -0.0625567)
(-0.0749218 0.000907665 -0.0981522)
(-0.0295546 0.000173471 -0.104244)
(-0.0181148 -0.0018309 0.0778458)
(-0.0503614 -0.00149701 0.0923417)
(-0.0734845 -0.000740691 0.0721854)
(-0.0871047 -9.10103e-05 0.047581)
(-0.095368 0.000387499 0.0233575)
(-0.100566 0.000725843 -0.0016188)
(-0.102696 0.00093197 -0.0302828)
(-0.0976691 0.000920372 -0.0663493)
(-0.0793406 0.000749024 -0.103979)
(-0.0311762 0.000179838 -0.110079)
(-0.0180336 -0.000973443 0.0778655)
(-0.0502965 -0.000865472 0.0926966)
(-0.0736415 -0.000443363 0.0726854)
(-0.087479 -5.02652e-05 0.0481007)
(-0.0959151 0.000254186 0.0238265)
(-0.10124 0.000470164 -0.00124553)
(-0.103489 0.000601812 -0.0300636)
(-0.0985249 0.000598946 -0.0664554)
(-0.0801572 0.000479543 -0.104495)
(-0.0315322 0.000143481 -0.110941)
(-0.0179472 -0.000302762 0.0777329)
(-0.0501078 -0.000280299 0.0926306)
(-0.0734575 -0.000146969 0.0727295)
(-0.0873487 -1.72811e-05 0.0482311)
(-0.0958492 8.58135e-05 0.0240156)
(-0.101236 0.00015929 -0.00101833)
(-0.103556 0.000203112 -0.0298266)
(-0.0986601 0.000202346 -0.0662698)
(-0.080342 0.000161188 -0.104418)
(-0.0316334 5.43639e-05 -0.111049)
(-0.0179472 0.000302752 0.0777329)
(-0.0501078 0.000280291 0.0926306)
(-0.0734575 0.00014696 0.0727295)
(-0.0873487 1.72714e-05 0.0482311)
(-0.0958492 -8.58117e-05 0.0240156)
(-0.101236 -0.000159272 -0.00101832)
(-0.103556 -0.000203088 -0.0298266)
(-0.0986601 -0.000202346 -0.0662698)
(-0.080342 -0.000161198 -0.104418)
(-0.0316334 -5.43589e-05 -0.111049)
(-0.0180336 0.000973437 0.0778655)
(-0.0502965 0.00086546 0.0926966)
(-0.0736415 0.000443348 0.0726853)
(-0.087479 5.02475e-05 0.0481007)
(-0.0959151 -0.000254191 0.0238265)
(-0.10124 -0.000470153 -0.00124551)
(-0.103489 -0.000601792 -0.0300636)
(-0.098525 -0.000598941 -0.0664554)
(-0.0801572 -0.000479549 -0.104495)
(-0.0315322 -0.000143467 -0.110941)
(-0.0181148 0.0018309 0.0778458)
(-0.0503614 0.00149699 0.0923417)
(-0.0734845 0.00074067 0.0721854)
(-0.0871046 9.09846e-05 0.047581)
(-0.0953679 -0.000387505 0.0233576)
(-0.100566 -0.000725832 -0.00161878)
(-0.102696 -0.000931946 -0.0302829)
(-0.0976691 -0.000920372 -0.0663493)
(-0.0793407 -0.000749046 -0.103979)
(-0.0311762 -0.000179832 -0.110079)
(-0.017377 0.00283225 0.0752264)
(-0.0479677 0.0020396 0.0880733)
(-0.0695028 0.000968728 0.0685167)
(-0.0821614 0.000156446 0.0450593)
(-0.089881 -0.00039855 0.0221094)
(-0.0948003 -0.000792924 -0.00149527)
(-0.0968505 -0.00103902 -0.028583)
(-0.0921819 -0.00103049 -0.0625567)
(-0.0749218 -0.000907697 -0.0981522)
(-0.0295547 -0.000173477 -0.104244)
(-0.0116454 0.00168615 0.0548607)
(-0.031752 0.00114238 0.0609355)
(-0.045446 0.000531562 0.0471173)
(-0.053716 0.000101817 0.0314276)
(-0.0590517 -0.000176108 0.0162824)
(-0.0627603 -0.000372122 0.000726885)
(-0.0647016 -0.000494482 -0.0172542)
(-0.0621921 -0.00048533 -0.0400086)
(-0.0510369 -0.000448273 -0.0646652)
(-0.0206261 -8.95145e-05 -0.0716796)
(-0.0215534 -0.00237459 0.0826718)
(-0.0492327 -0.00135813 0.0799954)
(-0.05733 -0.00018223 0.057554)
(-0.0609964 0.000554194 0.0370348)
(-0.063617 0.000982235 0.0198134)
(-0.0669821 0.00134533 0.00351452)
(-0.0717115 0.0018234 -0.0167367)
(-0.0744985 0.00206149 -0.046868)
(-0.0726888 0.00212646 -0.0871667)
(-0.0299957 2.76563e-05 -0.123322)
(-0.0311952 -0.00393029 0.110484)
(-0.0726603 -0.00245827 0.115155)
(-0.0864029 -0.000494558 0.0840558)
(-0.0917898 0.000858687 0.0536941)
(-0.0946794 0.00171571 0.0277092)
(-0.0979261 0.00241806 0.00297764)
(-0.102626 0.00321548 -0.0273914)
(-0.103823 0.00352498 -0.0725099)
(-0.0988912 0.00341886 -0.131221)
(-0.037468 -6.28316e-05 -0.178385)
(-0.0323793 -0.00250295 0.113776)
(-0.0758708 -0.00186983 0.120652)
(-0.0908991 -0.000592113 0.0887134)
(-0.0968275 0.000437156 0.0569705)
(-0.0998658 0.0011661 0.029596)
(-0.103044 0.00172706 0.0034526)
(-0.107722 0.00220301 -0.0285238)
(-0.10858 0.00225535 -0.0765455)
(-0.103292 0.00190917 -0.138742)
(-0.0386052 -1.62315e-06 -0.188486)
(-0.0322511 -0.00130772 0.113762)
(-0.0756714 -0.00109225 0.121113)
(-0.0908868 -0.000417425 0.0894099)
(-0.0970381 0.000180225 0.0576965)
(-0.100237 0.000633047 0.0302757)
(-0.103519 0.000976532 0.00403841)
(-0.108365 0.00121656 -0.0280081)
(-0.109384 0.00121044 -0.0765495)
(-0.104354 0.00095369 -0.139479)
(-0.0390848 6.17315e-05 -0.190265)
(-0.0321193 -0.000401778 0.113589)
(-0.0753707 -0.000354231 0.121032)
(-0.0905807 -0.000148048 0.0894866)
(-0.0968094 4.50599e-05 0.0578801)
(-0.100094 0.000196646 0.0305284)
(-0.103458 0.000310943 0.00433717)
(-0.108418 0.000382155 -0.0276705)
(-0.109565 0.000375915 -0.0763128)
(-0.104693 0.000287615 -0.139439)
(-0.0392854 3.44452e-05 -0.190595)
(-0.0321193 0.00040177 0.113589)
(-0.0753707 0.000354221 0.121032)
(-0.0905807 0.000148029 0.0894866)
(-0.0968094 -4.50701e-05 0.0578801)
(-0.100093 -0.000196625 0.0305284)
(-0.103458 -0.000310919 0.00433717)
(-0.108418 -0.000382151 -0.0276705)
(-0.109565 -0.000375918 -0.0763128)
(-0.104693 -0.000287619 -0.139439)
(-0.0392854 -3.44356e-05 -0.190595)
(-0.0322511 0.00130772 0.113762)
(-0.0756714 0.00109224 0.121113)
(-0.0908869 0.000417403 0.0894099)
(-0.0970381 -0.000180238 0.0576965)
(-0.100237 -0.00063303 0.0302758)
(-0.103519 -0.000976516 0.00403841)
(-0.108365 -0.00121656 -0.0280082)
(-0.109384 -0.00121044 -0.0765495)
(-0.104354 -0.00095369 -0.139479)
(-0.0390848 -6.17212e-05 -0.190265)
(-0.0323793 0.00250294 0.113776)
(-0.0758708 0.0018698 0.120652)
(-0.0908991 0.000592094 0.0887134)
(-0.0968275 -0.000437168 0.0569706)
(-0.0998657 -0.00116608 0.0295961)
(-0.103044 -0.00172704 0.00345261)
(-0.107722 -0.00220301 -0.0285238)
(-0.10858 -0.00225536 -0.0765454)
(-0.103292 -0.00190918 -0.138742)
(-0.0386052 1.63283e-06 -0.188486)
(-0.0311952 0.00393029 0.110484)
(-0.0726603 0.00245824 0.115155)
(-0.0864029 0.000494535 0.0840558)
(-0.0917897 -0.000858698 0.0536941)
(-0.0946794 -0.00171568 0.0277093)
(-0.0979261 -0.00241802 0.00297765)
(-0.102626 -0.00321547 -0.0273914)
(-0.103823 -0.003525 -0.0725099)
(-0.0988913 -0.00341888 -0.131221)
(-0.037468 6.28329e-05 -0.178385)
(-0.0215534 0.00237459 0.0826718)
(-0.0492327 0.0013581 0.0799954)
(-0.05733 0.000182212 0.057554)
(-0.0609964 -0.000554203 0.0370348)
(-0.063617 -0.000982209 0.0198134)
(-0.0669822 -0.00134529 0.0035145)
(-0.0717115 -0.00182338 -0.0167367)
(-0.0744985 -0.0020615 -0.046868)
(-0.0726888 -0.00212646 -0.0871667)
(-0.0299957 -2.76455e-05 -0.123322)
(-0.0279193 -0.00420414 0.155584)
(-0.0449049 -0.00178771 0.095098)
(-0.024988 0.000573748 0.0550596)
(-0.0132599 0.00168053 0.0324186)
(-0.00672331 0.00222422 0.0167434)
(-0.00631087 0.00284245 0.00267753)
(-0.0128482 0.00385884 -0.0167227)
(-0.0218697 0.00428793 -0.053742)
(-0.0496671 0.00457507 -0.11859)
(-0.00597766 -0.00217792 -0.199976)
(-0.0432072 -0.00660487 0.205033)
(-0.0654568 -0.00320003 0.135286)
(-0.0375208 0.000447181 0.0810986)
(-0.0183521 0.00245363 0.0483216)
(-0.00552912 0.00358256 0.0248021)