/*--------------------------------*- C++ -*----------------------------------*\
  =========                 |
  \\      /  F ield         | OpenFOAM: The Open Source CFD Toolbox
   \\    /   O peration     | Website:  https://openfoam.org
    \\  /    A nd           | Version:  9
     \\/     M anipulation  |
\*---------------------------------------------------------------------------*/
FoamFile
{
    format      ascii;
    class       surfaceScalarField;
    location    "0.17";
    object      phi;
}
// * * * * * * * * * * * * * * * * * * * * * * * * * * * * * * * * * * * * * //

dimensions      [0 3 -1 0 0 0 0];

internalField   nonuniform List<scalar> 
2700
(
-1.14775e-07
-4.32142e-08
1.57987e-07
-4.05533e-07
-2.20499e-08
3.12808e-07
-7.24117e-07
-1.32259e-08
3.3181e-07
-9.87726e-07
-1.89017e-08
2.8251e-07
-1.14115e-06
-3.8243e-08
1.91671e-07
-1.13536e-06
-6.98378e-08
6.40424e-08
-9.38457e-07
-1.03114e-07
-9.37866e-08
-5.72231e-07
-1.21376e-07
-2.4485e-07
-1.68336e-07
-1.0333e-07
-3.00565e-07
-2.54737e-08
-1.42862e-07
-2.29397e-07
-7.28774e-08
2.59061e-07
-7.61144e-07
-6.51883e-08
5.74886e-07
-1.33278e-06
-5.46058e-08
6.13016e-07
-1.79175e-06
-5.8315e-08
4.9838e-07
-2.04442e-06
-7.76475e-08
2.92082e-07
-2.01669e-06
-1.09097e-07
1.1525e-08
-1.65774e-06
-1.41383e-07
-3.20681e-07
-1.00955e-06
-1.56203e-07
-6.13358e-07
-3.05259e-07
-1.31335e-07
-6.76292e-07
-4.61659e-08
-2.84566e-07
-2.69413e-07
-6.73352e-08
2.63871e-07
-8.96577e-07
-7.33937e-08
6.35369e-07
-1.56756e-06
-6.6264e-08
6.82646e-07
-2.10237e-06
-6.58366e-08
5.42324e-07
-2.39287e-06
-7.58775e-08
2.8873e-07
-2.35163e-06
-9.43029e-08
-5.60334e-08
-1.92257e-06
-1.13332e-07
-4.57111e-07
-1.15717e-06
-1.20264e-07
-8.01336e-07
-3.37252e-07
-1.01346e-07
-8.49907e-07
-4.30746e-08
-3.40343e-07
-2.77044e-07
-3.86571e-08
2.48366e-07
-9.3666e-07
-4.57799e-08
6.32003e-07
-1.64444e-06
-4.2422e-08
6.83937e-07
-2.20812e-06
-4.09676e-08
5.38812e-07
-2.51313e-06
-4.42877e-08
2.73425e-07
-2.46672e-06
-5.16324e-08
-8.90814e-08
-2.00934e-06
-5.93257e-08
-5.11394e-07
-1.19751e-06
-6.15529e-08
-8.70541e-07
-3.36671e-07
-5.22555e-08
-9.09925e-07
-2.47949e-08
-3.54951e-07
-2.76653e-07
2.74908e-12
2.37993e-07
-9.44907e-07
1.66316e-12
6.22473e-07
-1.66398e-06
1.1942e-12
6.7665e-07
-2.23722e-06
9.45718e-13
5.3227e-07
-2.54745e-06
6.8785e-13
2.65943e-07
-2.49965e-06
4.62117e-13
-9.94311e-08
-2.03278e-06
2.79997e-13
-5.26201e-07
-1.20557e-06
1.43698e-13
-8.88759e-07
-3.32672e-07
-6.03125e-14
-9.25154e-07
-4.50008e-13
-3.57467e-07
-2.76653e-07
3.86626e-08
2.37993e-07
-9.44908e-07
4.57831e-08
6.22473e-07
-1.66398e-06
4.24244e-08
6.7665e-07
-2.23722e-06
4.09695e-08
5.3227e-07
-2.54745e-06
4.42891e-08
2.65943e-07
-2.49965e-06
5.16333e-08
-9.94312e-08
-2.03278e-06
5.93262e-08
-5.26201e-07
-1.20557e-06
6.15532e-08
-8.8876e-07
-3.32672e-07
5.22554e-08
-9.25154e-07
2.4794e-08
-3.57467e-07
-2.77044e-07
6.73409e-08
2.48366e-07
-9.3666e-07
7.33962e-08
6.32004e-07
-1.64444e-06
6.62662e-08
6.83937e-07
-2.20812e-06
6.58384e-08
5.38812e-07
-2.51314e-06
7.58789e-08
2.73425e-07
-2.46672e-06
9.43038e-08
-8.90819e-08
-2.00934e-06
1.13332e-07
-5.11394e-07
-1.19751e-06
1.20265e-07
-8.70541e-07
-3.36671e-07
1.01346e-07
-9.09925e-07
4.30737e-08
-3.54951e-07
-2.69414e-07
7.28829e-08
2.63872e-07
-8.96578e-07
6.51885e-08
6.35371e-07
-1.56757e-06
5.46073e-08
6.82647e-07
-2.10237e-06
5.83164e-08
5.42324e-07
-2.39287e-06
7.76488e-08
2.8873e-07
-2.35163e-06
1.09098e-07
-5.60342e-08
-1.92257e-06
1.41384e-07
-4.57112e-07
-1.15717e-06
1.56203e-07
-8.01337e-07
-3.37252e-07
1.31335e-07
-8.49908e-07
4.61656e-08
-3.40343e-07
-2.29395e-07
4.32144e-08
2.59064e-07
-7.61145e-07
2.20473e-08
5.7489e-07
-1.33278e-06
1.32265e-08
6.13018e-07
-1.79175e-06
1.89026e-08
4.9838e-07
-2.04443e-06
3.82439e-08
2.92082e-07
-2.01669e-06
6.98387e-08
1.15244e-08
-1.65774e-06
1.03114e-07
-3.20682e-07
-1.00955e-06
1.21377e-07
-6.13358e-07
-3.05258e-07
1.03331e-07
-6.76293e-07
2.54742e-08
-2.84566e-07
-1.14775e-07
1.57989e-07
-4.05539e-07
3.12811e-07
-7.24122e-07
3.3181e-07
-9.8773e-07
2.8251e-07
-1.14116e-06
1.9167e-07
-1.13536e-06
6.40421e-08
-9.38459e-07
-9.37867e-08
-5.72232e-07
-2.4485e-07
-1.68336e-07
-3.00565e-07
-1.42862e-07
-2.70199e-07
-1.23716e-07
5.51902e-07
-8.00738e-07
-1.1356e-07
9.56908e-07
-1.35641e-06
-9.60143e-08
9.83495e-07
-1.80789e-06
-8.84259e-08
8.2242e-07
-2.06749e-06
-9.35593e-08
5.4483e-07
-2.06152e-06
-1.10196e-07
1.68266e-07
-1.73314e-06
-1.33027e-07
-2.89141e-07
-1.10705e-06
-1.39505e-07
-7.31438e-07
-3.8154e-07
-1.01554e-07
-9.24516e-07
7.23855e-09
-5.31641e-07
-5.97024e-07
-1.67661e-07
9.0003e-07
-1.66352e-06
-1.83306e-07
1.71113e-06
-2.75003e-06
-1.62972e-07
1.76648e-06
-3.60265e-06
-1.49099e-07
1.41168e-06
-4.06e-06
-1.51573e-07
8.07442e-07
-4.0041e-06
-1.70279e-07
1.57112e-08
-3.34246e-06
-1.92952e-07
-9.224e-07
-2.14026e-06
-1.96022e-07
-1.75904e-06
-7.64846e-07
-1.47869e-07
-2.00539e-06
-2.25385e-08
-1.01964e-06
-7.2936e-07
-1.37187e-07
9.62758e-07
-2.02423e-06
-1.6629e-07
1.91323e-06
-3.33258e-06
-1.51929e-07
1.97996e-06
-4.34682e-06
-1.37878e-07
1.54534e-06
-4.87783e-06
-1.35762e-07
8.0393e-07
-4.78812e-06
-1.45988e-07
-1.70038e-07
-3.97845e-06
-1.5913e-07
-1.3006e-06
-2.53103e-06
-1.58414e-07
-2.28636e-06
-8.93798e-07
-1.23223e-07
-2.51179e-06
-3.65615e-08
-1.22012e-06
-7.65026e-07
-7.37253e-08
9.4993e-07
-2.13938e-06
-9.45414e-08
1.9346e-06
-3.52827e-06
-8.76458e-08
2.00855e-06
-4.60185e-06
-7.90292e-08
1.55355e-06
-5.16002e-06
-7.6112e-08
7.71937e-07
-5.05707e-06
-7.94048e-08
-2.5861e-07
-4.19036e-06
-8.43758e-08
-1.45286e-06
-2.64966e-06
-8.30189e-08
-2.48663e-06
-9.1979e-07
-6.61411e-08
-2.69688e-06
-2.50208e-08
-1.28628e-06
-7.69966e-07
1.81887e-12
9.34232e-07
-2.16568e-06
5.51508e-14
1.92365e-06
-3.57853e-06
-2.09356e-13
2.00185e-06
-4.67078e-06
2.13311e-13
1.54549e-06
-5.23821e-06
4.38168e-13
7.57259e-07
-5.13187e-06
5.37683e-13
-2.85174e-07
-4.24735e-06
5.70773e-13
-1.4951e-06
-2.67742e-06
6.38136e-13
-2.54171e-06
-9.20915e-07
5.42288e-13
-2.7478e-06
1.31303e-13
-1.3034e-06
-7.69966e-07
7.37287e-08
9.34232e-07
-2.16568e-06
9.45411e-08
1.92365e-06
-3.57853e-06
8.76452e-08
2.00185e-06
-4.67078e-06
7.90296e-08
1.54549e-06
-5.23821e-06
7.61129e-08
7.57258e-07
-5.13187e-06
7.94059e-08
-2.85175e-07
-4.24735e-06
8.43769e-08
-1.4951e-06
-2.67742e-06
8.30202e-08
-2.54171e-06
-9.20915e-07
6.61422e-08
-2.7478e-06
2.50211e-08
-1.3034e-06
-7.65026e-07
1.3719e-07
9.4993e-07
-2.13938e-06
1.66289e-07
1.93461e-06
-3.52827e-06
1.51928e-07
2.00855e-06
-4.60185e-06
1.37878e-07
1.55355e-06
-5.16001e-06
1.35763e-07
7.71936e-07
-5.05707e-06
1.45989e-07
-2.58611e-07
-4.19036e-06
1.59132e-07
-1.45286e-06
-2.64966e-06
1.58415e-07
-2.48663e-06
-9.1979e-07
1.23224e-07
-2.69688e-06
3.65618e-08
-1.28628e-06
-7.29358e-07
1.67661e-07
9.62758e-07
-2.02423e-06
1.83303e-07
1.91323e-06
-3.33258e-06
1.6297e-07
1.97996e-06
-4.34682e-06
1.49099e-07
1.54534e-06
-4.87783e-06
1.51575e-07
8.03929e-07
-4.78812e-06
1.7028e-07
-1.70039e-07
-3.97845e-06
1.92953e-07
-1.3006e-06
-2.53103e-06
1.96023e-07
-2.28636e-06
-8.93797e-07
1.47871e-07
-2.51179e-06
2.2539e-08
-1.22012e-06
-5.9702e-07
1.23714e-07
9.00031e-07
-1.66352e-06
1.13557e-07
1.71114e-06
-2.75003e-06
9.60135e-08
1.76648e-06
-3.60265e-06
8.84265e-08
1.41168e-06
-4.06e-06
9.35605e-08
8.07442e-07
-4.0041e-06
1.10197e-07
1.57102e-08
-3.34246e-06
1.33028e-07
-9.22401e-07
-2.14026e-06
1.39506e-07
-1.75904e-06
-7.64845e-07
1.01555e-07
-2.00539e-06
-7.23793e-09
-1.01963e-06
-2.70196e-07
5.51899e-07
-8.00739e-07
9.5691e-07
-1.35641e-06
9.83495e-07
-1.80789e-06
8.2242e-07
-2.06749e-06
5.4483e-07
-2.06152e-06
1.68266e-07
-1.73314e-06
-2.8914e-07
-1.10705e-06
-7.31437e-07
-3.81539e-07
-9.24515e-07
-5.31639e-07
-3.76049e-07
-1.9374e-07
1.12169e-06
-1.06871e-06
-1.94442e-07
1.84401e-06
-1.77946e-06
-1.6967e-07
1.86391e-06
-2.36538e-06
-1.49029e-07
1.55737e-06
-2.73209e-06
-1.4118e-07
1.05272e-06
-2.78426e-06
-1.4983e-07
3.70264e-07
-2.42549e-06
-1.68507e-07
-4.79408e-07
-1.63111e-06
-1.72829e-07
-1.35298e-06
-6.12701e-07
-1.21348e-07
-1.82158e-06
2.9331e-08
-1.17367e-06
-8.57722e-07
-2.54256e-07
1.81827e-06
-2.29967e-06
-2.90344e-07
3.24898e-06
-3.73694e-06
-2.58925e-07
3.29301e-06
-4.87578e-06
-2.25238e-07
2.62672e-06
-5.53779e-06
-2.08057e-07
1.53633e-06
-5.56381e-06
-2.11986e-07
1.03887e-07
-4.79823e-06
-2.29085e-07
-1.62741e-06
-3.22357e-06
-2.29045e-07
-3.27747e-06
-1.24391e-06
-1.67976e-07
-3.93843e-06
-3.97459e-09
-2.23024e-06
-1.06074e-06
-2.01124e-07
1.97037e-06
-2.83116e-06
-2.49766e-07
3.64306e-06
-4.57995e-06
-2.25844e-07
3.69567e-06
-5.94614e-06
-1.94216e-07
2.88051e-06
-6.7193e-06
-1.74641e-07
1.54367e-06
-6.71885e-06
-1.71597e-07
-2.10874e-07
-5.76592e-06
-1.78096e-07
-2.30452e-06
-3.85125e-06
-1.7457e-07
-4.2555e-06
-1.47218e-06
-1.32948e-07
-4.92589e-06
-2.74158e-08
-2.66885e-06
-1.11772e-06
-1.05364e-07
1.97189e-06
-3.00263e-06
-1.37351e-07
3.7071e-06
-4.86396e-06
-1.25191e-07
3.76923e-06
-6.31326e-06
-1.06681e-07
2.91531e-06
-7.12779e-06
-9.38716e-08
1.5057e-06
-7.11749e-06
-8.94881e-08
-3.5102e-07
-6.0943e-06
-9.02253e-08
-2.56392e-06
-4.05155e-06
-8.74007e-08
-4.61655e-06
-1.52875e-06
-6.86646e-08
-5.28396e-06
-2.13088e-08
-2.82114e-06
-1.12634e-06
1.48281e-12
1.95521e-06
-3.04141e-06
-3.14091e-13
3.70136e-06
-4.93543e-06
-5.10645e-13
3.77069e-06
-6.41036e-06
1.95232e-14
2.91373e-06
-7.23895e-06
2.04734e-13
1.49198e-06
-7.22735e-06
2.06879e-13
-3.86254e-07
-6.1837e-06
2.17316e-13
-2.62898e-06
-4.10211e-06
2.13755e-13
-4.7107e-06
-1.53779e-06
8.15632e-14
-5.38078e-06
6.3325e-14
-2.8625e-06
-1.12634e-06
1.05367e-07
1.95521e-06
-3.04141e-06
1.3735e-07
3.70137e-06
-4.93543e-06
1.2519e-07
3.77069e-06
-6.41036e-06
1.06681e-07
2.91373e-06
-7.23895e-06
9.38721e-08
1.49198e-06
-7.22735e-06
8.94885e-08
-3.86254e-07
-6.1837e-06
9.02257e-08
-2.62898e-06
-4.10211e-06
8.74011e-08
-4.7107e-06
-1.53779e-06
6.86648e-08
-5.38078e-06
2.13089e-08
-2.8625e-06
-1.11771e-06
2.01127e-07
1.97189e-06
-3.00263e-06
2.49764e-07
3.7071e-06
-4.86396e-06
2.25843e-07
3.76923e-06
-6.31326e-06
1.94216e-07
2.91531e-06
-7.12779e-06
1.74642e-07
1.5057e-06
-7.11749e-06
1.71597e-07
-3.51021e-07
-6.0943e-06
1.78096e-07
-2.56392e-06
-4.05155e-06
1.74571e-07
-4.61655e-06
-1.52875e-06
1.32949e-07
-5.28396e-06
2.74158e-08
-2.82114e-06
-1.06074e-06
2.54257e-07
1.97037e-06
-2.83115e-06
2.90342e-07
3.64306e-06
-4.57995e-06
2.58924e-07
3.69567e-06
-5.94614e-06
2.25238e-07
2.88051e-06
-6.7193e-06
2.08058e-07
1.54367e-06
-6.71885e-06
2.11986e-07
-2.10875e-07
-5.76592e-06
2.29085e-07
-2.30452e-06
-3.85125e-06
2.29045e-07
-4.2555e-06
-1.47218e-06
1.67976e-07
-4.92589e-06
3.97436e-09
-2.66885e-06
-8.5772e-07
1.93741e-07
1.81827e-06
-2.29967e-06
1.9444e-07
3.24898e-06
-3.73694e-06
1.6967e-07
3.29301e-06
-4.87578e-06
1.49029e-07
2.62672e-06
-5.53779e-06
1.41181e-07
1.53633e-06
-5.56381e-06
1.49831e-07
1.03885e-07
-4.79823e-06
1.68507e-07
-1.62741e-06
-3.22357e-06
1.72829e-07
-3.27747e-06
-1.24391e-06
1.21348e-07
-3.93843e-06
-2.93314e-08
-2.23024e-06
-3.7605e-07
1.12169e-06
-1.06871e-06
1.84401e-06
-1.77946e-06
1.86391e-06
-2.36538e-06
1.55737e-06
-2.73209e-06
1.05272e-06
-2.78426e-06
3.70264e-07
-2.42549e-06
-4.79407e-07
-1.63111e-06
-1.35298e-06
-6.12702e-07
-1.82158e-06
-1.17367e-06
-4.96329e-07
-2.7305e-07
1.89107e-06
-1.36046e-06
-2.81551e-07
2.98969e-06
-2.2325e-06
-2.44764e-07
2.98072e-06
-2.97589e-06
-2.07051e-07
2.50782e-06
-3.5064e-06
-1.83295e-07
1.76652e-06
-3.70922e-06
-1.81255e-07
7.54342e-07
-3.41766e-06
-2.00796e-07
-5.70172e-07
-2.48071e-06
-2.14497e-07
-2.07544e-06
-1.04933e-06
-1.62611e-07
-3.09034e-06
3.13221e-08
-2.25432e-06
-1.13409e-06
-3.53594e-07
3.0329e-06
-2.95965e-06
-4.07773e-07
5.20076e-06
-4.7545e-06
-3.56959e-07
5.20005e-06
-6.22202e-06
-2.93658e-07
4.18085e-06
-7.19556e-06
-2.4671e-07
2.57328e-06
-7.48095e-06
-2.25537e-07
4.3356e-07
-6.79299e-06
-2.38366e-07
-2.2778e-06
-4.89678e-06
-2.47352e-07
-5.14083e-06
-2.09348e-06
-1.95094e-07
-6.70924e-06
-4.44727e-09
-4.28795e-06
-1.4026e-06
-2.75176e-07
3.29455e-06
-3.65149e-06
-3.41682e-07
5.82586e-06
-5.84556e-06
-3.00102e-07
5.83288e-06
-7.6146e-06
-2.40484e-07
4.59638e-06
-8.75638e-06
-1.92433e-07
2.63117e-06
-9.06622e-06
-1.66901e-07
4.03301e-08
-8.18547e-06
-1.62028e-07
-3.26161e-06
-5.86613e-06
-1.63611e-07
-6.65858e-06
-2.48534e-06
-1.35127e-07
-8.36665e-06
-2.70538e-08
-5.13159e-06
-1.47606e-06
-1.4219e-07
3.31496e-06
-3.87004e-06
-1.84412e-07
5.94381e-06
-6.20672e-06
-1.62222e-07
5.96803e-06
-8.08566e-06
-1.27481e-07
4.68124e-06
-9.29313e-06
-9.7934e-08
2.61868e-06
-9.61105e-06
-7.97941e-08
-1.20205e-07
-8.66426e-06
-7.33696e-08
-3.59937e-06
-6.18888e-06
-7.29155e-08
-7.18263e-06
-2.59859e-06
-6.31426e-08
-8.94625e-06
-1.99228e-08
-5.42685e-06
-1.48584e-06
1.20677e-12
3.29886e-06
-3.91627e-06
-2.67932e-13
5.94738e-06
-6.29308e-06
-4.41826e-13
5.98528e-06
-8.20538e-06
-7.92546e-14
4.69855e-06
-9.43511e-06
-1.15883e-13
2.62377e-06
-9.75954e-06
-2.71976e-13
-1.4162e-07
-8.79688e-06
-2.94348e-13
-3.665e-06
-6.27689e-06
-3.62629e-13
-7.30361e-06
-2.62542e-06
-2.56944e-13
-9.09539e-06
6.02875e-14
-5.50784e-06
-1.48584e-06
1.42193e-07
3.29886e-06
-3.91627e-06
1.84412e-07
5.94738e-06
-6.29308e-06
1.62221e-07
5.98528e-06
-8.20538e-06
1.27481e-07
4.69855e-06
-9.43511e-06
9.79338e-08
2.62377e-06
-9.75954e-06
7.97935e-08
-1.4162e-07
-8.79688e-06
7.3369e-08
-3.665e-06
-6.27689e-06
7.29148e-08
-7.30361e-06
-2.62542e-06
6.31421e-08
-9.09539e-06
1.99229e-08
-5.50784e-06
-1.47606e-06
2.75178e-07
3.31496e-06
-3.87004e-06
3.41681e-07
5.94381e-06
-6.20672e-06
3.00101e-07
5.96803e-06
-8.08565e-06
2.40484e-07
4.68124e-06
-9.29313e-06
1.92432e-07
2.61868e-06
-9.61105e-06
1.669e-07
-1.20206e-07
-8.66426e-06
1.62028e-07
-3.59937e-06
-6.18888e-06
1.6361e-07
-7.18263e-06
-2.59859e-06
1.35126e-07
-8.94625e-06
2.70537e-08
-5.42685e-06
-1.4026e-06
3.53595e-07
3.29455e-06
-3.65149e-06
4.07772e-07
5.82587e-06
-5.84556e-06
3.56958e-07
5.83288e-06
-7.6146e-06
2.93658e-07
4.59638e-06
-8.75638e-06
2.46709e-07
2.63117e-06
-9.06622e-06
2.25537e-07
4.03297e-08
-8.18547e-06
2.38365e-07
-3.26161e-06
-5.86613e-06
2.47351e-07
-6.65858e-06
-2.48534e-06
1.95093e-07
-8.36665e-06
4.44679e-09
-5.13159e-06
-1.13409e-06
2.7305e-07
3.0329e-06
-2.95965e-06
2.8155e-07
5.20077e-06
-4.7545e-06
2.44764e-07
5.20005e-06
-6.22202e-06
2.07052e-07
4.18085e-06
-7.19556e-06
1.83295e-07
2.57328e-06
-7.48095e-06
1.81254e-07
4.3356e-07
-6.79299e-06
2.00795e-07
-2.2778e-06
-4.89678e-06
2.14496e-07
-5.14083e-06
-2.09348e-06
1.6261e-07
-6.70924e-06
-3.13225e-08
-4.28795e-06
-4.96329e-07
1.89107e-06
-1.36046e-06
2.98969e-06
-2.2325e-06
2.98072e-06
-2.97589e-06
2.50782e-06
-3.5064e-06
1.76652e-06
-3.70922e-06
7.54342e-07
-3.41767e-06
-5.70171e-07
-2.48071e-06
-2.07544e-06
-1.04933e-06
-3.09034e-06
-2.25432e-06
-6.87238e-07
-3.74552e-07
2.95286e-06
-1.76165e-06
-3.84532e-07
4.44864e-06
-2.80893e-06
-3.1914e-07
4.34714e-06
-3.73532e-06
-2.43193e-07
3.67741e-06
-4.49926e-06
-1.80252e-07
2.71071e-06
-4.98068e-06
-1.44066e-07
1.37983e-06
-4.92157e-06
-1.39521e-07
-4.89767e-07
-3.93846e-06
-1.69993e-07
-2.88855e-06
-1.93586e-06
-1.65999e-07
-4.92695e-06
-2.46386e-09
-4.18773e-06
-1.52932e-06
-4.76844e-07
4.66451e-06
-3.81693e-06
-5.4245e-07
7.64629e-06
-6.00946e-06
-4.48579e-07
7.52202e-06
-7.86395e-06
-3.23859e-07
6.11601e-06
-9.2759e-06
-2.12164e-07
4.01714e-06
-1.00279e-05
-1.36464e-07
1.17796e-06
-9.68488e-06
-1.02271e-07
-2.65807e-06
-7.61495e-06
-1.25885e-07
-7.25486e-06
-3.70627e-06
-1.49544e-07
-1.06344e-05
-3.47885e-08
-7.96189e-06
-1.87231e-06
-3.64921e-07
5.05493e-06
-4.68823e-06
-4.44777e-07
8.54412e-06
-7.37743e-06
-3.65967e-07
8.43948e-06
-9.62181e-06
-2.51356e-07
6.76825e-06
-1.12897e-05
-1.43262e-07
4.2302e-06
-1.21151e-05
-6.15259e-08
7.90736e-07
-1.16143e-05
-2.232e-08
-3.84233e-06
-9.05783e-06
-3.56513e-08
-9.3053e-06
-4.36265e-06
-7.33065e-08
-1.31381e-05
-3.91634e-08
-9.48986e-06
-1.9595e-06
-1.86151e-07
5.09569e-06
-4.94975e-06
-2.36391e-07
8.72568e-06
-7.81233e-06
-1.93758e-07
8.6584e-06
-1.01974e-05
-1.2827e-07
6.9432e-06
-1.19601e-05
-6.51717e-08
4.30332e-06
-1.28266e-05
-1.63767e-08
7.01098e-07
-1.22779e-05
8.61847e-09
-4.17898e-06
-9.55054e-06
1.72745e-09
-9.94736e-06
-4.57394e-06
-2.37327e-08
-1.39724e-05
-2.18064e-08
-1.00182e-05
-1.96739e-06
8.68822e-13
5.0801e-06
-4.99771e-06
-2.23955e-13
8.74132e-06
-7.90672e-06
-4.28161e-13
8.70053e-06
-1.03336e-05
-2.79627e-13
6.99719e-06
-1.21298e-05
-4.35325e-13
4.3548e-06
-1.30172e-05
-4.52642e-13
7.29375e-07
-1.24659e-05
-2.12222e-13
-4.20765e-06
-9.69607e-06
7.27453e-15
-1.00718e-05
-4.63619e-06
4.20021e-13
-1.4179e-05
3.60175e-13
-1.01658e-05
-1.96739e-06
1.86153e-07
5.0801e-06
-4.99771e-06
2.36391e-07
8.74132e-06
-7.90672e-06
1.93757e-07
8.70053e-06
-1.03336e-05
1.2827e-07
6.99719e-06
-1.21298e-05
6.51708e-08
4.3548e-06
-1.30172e-05
1.63758e-08
7.29375e-07
-1.24659e-05
-8.61891e-09
-4.20765e-06
-9.69607e-06
-1.72752e-09
-1.00718e-05
-4.63619e-06
2.37334e-08
-1.4179e-05
2.1807e-08
-1.01658e-05
-1.9595e-06
3.64923e-07
5.09569e-06
-4.94975e-06
4.44777e-07
8.72568e-06
-7.81233e-06
3.65967e-07
8.65841e-06
-1.01974e-05
2.51355e-07
6.9432e-06
-1.19601e-05
1.43262e-07
4.30332e-06
-1.28266e-05
6.1525e-08
7.01098e-07
-1.22779e-05
2.23197e-08
-4.17898e-06
-9.55054e-06
3.56514e-08
-9.94736e-06
-4.57394e-06
7.33071e-08
-1.39724e-05
3.91639e-08
-1.00182e-05
-1.8723e-06
4.76846e-07
5.05493e-06
-4.68823e-06
5.4245e-07
8.54412e-06
-7.37743e-06
4.48578e-07
8.43948e-06
-9.62181e-06
3.23859e-07
6.76825e-06
-1.12897e-05
2.12163e-07
4.23019e-06
-1.21151e-05
1.36463e-07
7.90736e-07
-1.16143e-05
1.02271e-07
-3.84233e-06
-9.05783e-06
1.25885e-07
-9.3053e-06
-4.36265e-06
1.49545e-07
-1.31381e-05
3.47888e-08
-9.48986e-06
-1.52932e-06
3.74552e-07
4.66451e-06
-3.81693e-06
3.84531e-07
7.64629e-06
-6.00946e-06
3.1914e-07
7.52202e-06
-7.86395e-06
2.43193e-07
6.11601e-06
-9.27589e-06
1.80251e-07
4.01714e-06
-1.00279e-05
1.44065e-07
1.17796e-06
-9.68488e-06
1.39521e-07
-2.65807e-06
-7.61495e-06
1.69993e-07
-7.25486e-06
-3.70627e-06
1.66e-07
-1.06344e-05
2.46407e-09
-7.96189e-06
-6.87238e-07
2.95286e-06
-1.76165e-06
4.44864e-06
-2.80893e-06
4.34714e-06
-3.73532e-06
3.6774e-06
-4.49926e-06
2.71071e-06
-4.98068e-06
1.37983e-06
-4.92157e-06
-4.89767e-07
-3.93846e-06
-2.88855e-06
-1.93586e-06
-4.92694e-06
-4.18772e-06
-1.02556e-06
-5.09694e-07
4.48811e-06
-2.32841e-06
-5.00339e-07
6.25183e-06
-3.49464e-06
-3.62138e-07
5.87551e-06
-4.54914e-06
-1.91874e-07
4.92377e-06
-5.55354e-06
-1.91532e-08
3.73427e-06
-6.44085e-06
1.27298e-07
2.13984e-06
-6.87033e-06
2.24464e-07
-2.84748e-07
-6.12865e-06
1.87383e-07
-3.81762e-06
-3.55711e-06
3.84454e-08
-7.53693e-06
-7.08478e-08
-7.67398e-06
-2.14547e-06
-6.3286e-07
6.93315e-06
-4.94366e-06
-6.88685e-07
1.06328e-05
-7.45355e-06
-4.97177e-07
1.01669e-05
-9.59011e-06
-2.37846e-07
8.29854e-06
-1.13947e-05
2.84305e-08
5.77411e-06
-1.27236e-05
2.69178e-07
2.36502e-06
-1.30266e-05
4.32677e-07
-2.56329e-06
-1.11928e-05
3.98892e-07
-9.30022e-06
-6.26194e-06
1.47094e-07
-1.56739e-05
-9.16739e-08
-1.4203e-05
-2.57025e-06
-4.7409e-07
7.46641e-06
-6.0041e-06
-5.54046e-07
1.18433e-05
-9.09607e-06
-3.98061e-07
1.14323e-05
-1.16819e-05
-1.73666e-07
9.28992e-06
-1.37794e-05
6.00331e-08
6.29603e-06
-1.51965e-05
2.70861e-07
2.20616e-06
-1.53353e-05
4.09315e-07
-3.68009e-06
-1.29811e-05
3.81671e-07
-1.16423e-05
-7.15235e-06
1.62109e-07
-1.89819e-05
-6.12034e-08
-1.66727e-05
-2.66384e-06
-2.38293e-07
7.52373e-06
-6.29414e-06
-2.90595e-07
1.20925e-05
-9.58216e-06
-2.08033e-07
1.17564e-05
-1.23277e-05
-8.48385e-08
9.59986e-06
-1.45367e-05
4.40797e-08
6.52827e-06
-1.60013e-05
1.59426e-07
2.27721e-06
-1.61071e-05
2.31928e-07
-3.89583e-06
-1.35907e-05
2.15236e-07
-1.22973e-05
-7.45793e-06
9.64742e-08
-2.00395e-05
-2.5707e-08
-1.75116e-05
-2.66432e-06
5.53678e-13
7.50612e-06
-6.33276e-06
-1.41911e-13
1.21192e-05
-9.66943e-06
-3.82229e-13
1.18292e-05
-1.24623e-05
-4.31968e-13
9.70521e-06
-1.47139e-05
-5.62664e-13
6.65045e-06
-1.62126e-05
-3.13891e-13
2.38752e-06
-1.63349e-05
1.11698e-13
-3.85339e-06
-1.37901e-05
1.47728e-13
-1.24013e-05
-7.56611e-06
2.57104e-13
-2.03066e-05
3.893e-13
-1.77577e-05
-2.66432e-06
2.38294e-07
7.50612e-06
-6.33276e-06
2.90595e-07
1.21192e-05
-9.66943e-06
2.08033e-07
1.18292e-05
-1.24623e-05
8.48377e-08
9.70521e-06
-1.47139e-05
-4.40808e-08
6.65045e-06
-1.62126e-05
-1.59427e-07
2.38752e-06
-1.63349e-05
-2.31928e-07
-3.85339e-06
-1.37901e-05
-2.15236e-07
-1.24013e-05
-7.56611e-06
-9.64737e-08
-2.03066e-05
2.57077e-08
-1.77577e-05
-2.66384e-06
4.74092e-07
7.52373e-06
-6.29414e-06
5.54045e-07
1.20925e-05
-9.58216e-06
3.9806e-07
1.17564e-05
-1.23277e-05
1.73665e-07
9.59986e-06
-1.45367e-05
-6.00341e-08
6.52827e-06
-1.60013e-05
-2.70862e-07
2.27721e-06
-1.61071e-05
-4.09315e-07
-3.89583e-06
-1.35907e-05
-3.8167e-07
-1.22973e-05
-7.45793e-06
-1.62108e-07
-2.00395e-05
6.12038e-08
-1.75116e-05
-2.57025e-06
6.3286e-07
7.46641e-06
-6.0041e-06
6.88685e-07
1.18433e-05
-9.09607e-06
4.97177e-07
1.14323e-05
-1.16819e-05
2.37846e-07
9.28992e-06
-1.37794e-05
-2.84315e-08
6.29603e-06
-1.51965e-05
-2.69179e-07
2.20616e-06
-1.53353e-05
-4.32676e-07
-3.68008e-06
-1.29811e-05
-3.98891e-07
-1.16423e-05
-7.15236e-06
-1.47094e-07
-1.89819e-05
9.16737e-08
-1.66727e-05
-2.14547e-06
5.09694e-07
6.93314e-06
-4.94366e-06
5.00339e-07
1.06328e-05
-7.45355e-06
3.62138e-07
1.01669e-05
-9.59011e-06
1.91874e-07
8.29854e-06
-1.13947e-05
1.91523e-08
5.77411e-06
-1.27236e-05
-1.27299e-07
2.36502e-06
-1.30266e-05
-2.24463e-07
-2.56329e-06
-1.11928e-05
-1.87382e-07
-9.30022e-06
-6.26194e-06
-3.84445e-08
-1.56739e-05
7.08481e-08
-1.4203e-05
-1.02556e-06
4.48811e-06
-2.32841e-06
6.25183e-06
-3.49464e-06
5.87551e-06
-4.54914e-06
4.92377e-06
-5.55354e-06
3.73427e-06
-6.44085e-06
2.13984e-06
-6.87033e-06
-2.84748e-07
-6.12865e-06
-3.81762e-06
-3.55711e-06
-7.53693e-06
-7.67398e-06
-1.69845e-06
-6.95944e-07
6.88251e-06
-3.08901e-06
-6.26339e-07
8.26873e-06
-4.08503e-06
-3.27382e-07
7.19891e-06
-4.98207e-06
3.34429e-08
5.78737e-06
-6.01399e-06
4.14251e-07
4.35193e-06
-7.2665e-06
8.13677e-07
2.57867e-06
-8.43282e-06
1.15393e-06
-2.72357e-07
-8.47984e-06
1.15785e-06
-4.92844e-06
-5.81224e-06
6.48992e-07
-1.08535e-05
-1.51249e-07
-1.3335e-05
-3.16996e-06
-8.35478e-07
1.02426e-05
-6.28098e-06
-8.42391e-07
1.39599e-05
-8.60403e-06
-4.58842e-07
1.26215e-05
-1.04247e-05
4.62034e-08
1.01065e-05
-1.20539e-05
5.91861e-07
7.22568e-06
-1.35671e-05
1.14473e-06
3.54713e-06
-1.45452e-05
1.57798e-06
-2.0092e-06
-1.36578e-05
1.55415e-06
-1.05839e-05
-8.85545e-06
8.38534e-07
-2.06658e-05
-1.85353e-07
-2.30243e-05
-3.66276e-06
-6.09105e-07
1.09028e-05
-7.47939e-06
-6.67569e-07
1.54851e-05
-1.03874e-05
-3.73794e-07
1.42553e-05
-1.258e-05
3.58491e-08
1.14929e-05
-1.43462e-05
4.80547e-07
8.17347e-06
-1.57489e-05
9.18233e-07
3.8354e-06
-1.63925e-05
1.23343e-06
-2.69189e-06
-1.49926e-05
1.18433e-06
-1.26724e-05
-9.54336e-06
6.16237e-07
-2.42089e-05
-1.19667e-07
-2.62817e-05
-3.74431e-06
-3.00992e-07
1.09599e-05
-7.75632e-06
-3.46854e-07
1.57838e-05
-1.08521e-05
-1.97502e-07
1.46758e-05
-1.31745e-05
1.76346e-08
1.19405e-05
-1.49987e-05
2.51841e-07
8.58118e-06
-1.63864e-05
4.76724e-07
4.10647e-06
-1.69577e-05
6.28834e-07
-2.72003e-06
-1.54414e-05
5.92858e-07
-1.32221e-05
-9.81666e-06
3.04094e-07
-2.53521e-05
-4.77104e-08
-2.74002e-05
-3.72843e-06
2.36965e-13
1.09336e-05
-7.7659e-06
-1.58941e-13
1.58098e-05
-1.09024e-05
-6.1132e-13
1.47682e-05
-1.32654e-05
-8.92248e-13
1.20858e-05
-1.51241e-05
-8.37947e-13
8.76095e-06
-1.65436e-05
-3.24228e-13
4.28374e-06
-1.71422e-05
-8.11523e-14
-2.62592e-06
-1.56327e-05
-3.66087e-13
-1.3318e-05
-9.95322e-06
-2.5124e-13
-2.56819e-05
1.9138e-13
-2.77586e-05
-3.72843e-06
3.00992e-07
1.09336e-05
-7.7659e-06
3.46854e-07
1.58098e-05
-1.09024e-05
1.97501e-07
1.47682e-05
-1.32654e-05
-1.76363e-08
1.20858e-05
-1.51241e-05
-2.51842e-07
8.76095e-06
-1.65436e-05
-4.76724e-07
4.28374e-06
-1.71422e-05
-6.28834e-07
-2.62592e-06
-1.56327e-05
-5.92858e-07
-1.3318e-05
-9.95322e-06
-3.04094e-07
-2.56819e-05
4.77109e-08
-2.77586e-05
-3.74431e-06
6.09105e-07
1.09599e-05
-7.75632e-06
6.67569e-07
1.57838e-05
-1.08521e-05
3.73794e-07
1.46758e-05
-1.31745e-05
-3.58508e-08
1.19405e-05
-1.49987e-05
-4.80548e-07
8.58118e-06
-1.63864e-05
-9.18233e-07
4.10647e-06
-1.69577e-05
-1.23343e-06
-2.72003e-06
-1.54414e-05
-1.18433e-06
-1.32221e-05
-9.81666e-06
-6.16237e-07
-2.53521e-05
1.19667e-07
-2.74002e-05
-3.66276e-06
8.35479e-07
1.09028e-05
-7.47939e-06
8.42391e-07
1.54851e-05
-1.03874e-05
4.58842e-07
1.42553e-05
-1.258e-05
-4.62048e-08
1.14929e-05
-1.43462e-05
-5.91862e-07
8.17347e-06
-1.57489e-05
-1.14473e-06
3.8354e-06
-1.63926e-05
-1.57797e-06
-2.69189e-06
-1.49926e-05
-1.55415e-06
-1.26724e-05
-9.54336e-06
-8.38534e-07
-2.42089e-05
1.85352e-07
-2.62817e-05
-3.16996e-06
6.95945e-07
1.02426e-05
-6.28098e-06
6.2634e-07
1.39599e-05
-8.60403e-06
3.27383e-07
1.26215e-05
-1.04247e-05
-3.34439e-08
1.01065e-05
-1.20539e-05
-4.14252e-07
7.22568e-06
-1.35671e-05
-8.13677e-07
3.54713e-06
-1.45452e-05
-1.15393e-06
-2.0092e-06
-1.36578e-05
-1.15785e-06
-1.05839e-05
-8.85545e-06
-6.48992e-07
-2.06658e-05
1.51249e-07
-2.30244e-05
-1.69845e-06
6.88251e-06
-3.08901e-06
8.26873e-06
-4.08503e-06
7.19891e-06
-4.98207e-06
5.78737e-06
-6.01399e-06
4.35193e-06
-7.2665e-06
2.57867e-06
-8.43282e-06
-2.72357e-07
-8.47984e-06
-4.92844e-06
-5.81224e-06
-1.08535e-05
-1.3335e-05
-2.98992e-06
-9.67648e-07
1.08401e-05
-3.68278e-06
-8.00652e-07
9.76223e-06
-3.62251e-06
-2.55218e-07
7.39386e-06
-3.59711e-06
3.6735e-07
5.39463e-06
-4.05008e-06
1.01457e-06
3.79033e-06
-5.24544e-06
1.72322e-06
2.05082e-06
-7.16736e-06
2.40402e-06
-7.54454e-07
-8.6539e-06
2.51041e-06
-5.95231e-06
-7.31718e-06
1.48187e-06
-1.36721e-05
-5.01624e-07
-2.01505e-05
-5.05353e-06
-1.11869e-06
1.54472e-05
-7.19762e-06
-1.06153e-06
1.63649e-05
-7.70256e-06
-4.12869e-07
1.3284e-05
-7.65232e-06
3.92851e-07
1.00307e-05
-7.71171e-06
1.25815e-06
7.04149e-06
-8.27545e-06
2.16118e-06
3.67291e-06
-9.42202e-06
2.93475e-06
-1.39336e-06
-1.02647e-05
2.92477e-06
-1.01556e-05
-8.26005e-06
1.52143e-06
-2.271e-05
-6.35856e-07
-3.11502e-05
-5.63353e-06
-7.91409e-07
1.6209e-05
-8.40259e-06
-8.3073e-07
1.80234e-05
-9.24871e-06
-3.66789e-07
1.50553e-05
-9.20512e-06
2.50701e-07
1.15915e-05
-8.94324e-06
9.20416e-07
8.24933e-06
-8.91487e-06
1.60058e-06
4.36763e-06
-9.35152e-06
2.13201e-06
-1.4525e-06
-9.75998e-06
2.05204e-06
-1.13912e-05
-7.81228e-06
1.0004e-06
-2.56355e-05
-4.06627e-07
-3.43232e-05
-5.69133e-06
-3.84019e-07
1.62439e-05
-8.60227e-06
-4.28506e-07
1.82925e-05
-9.55605e-06
-2.0347e-07
1.54663e-05
-9.52654e-06
1.09136e-07
1.20526e-05
-9.17547e-06
4.5109e-07
8.69944e-06
-8.97828e-06
7.91794e-07
4.71807e-06
-9.2532e-06
1.04314e-06
-1.35624e-06
-9.6466e-06
9.84698e-07
-1.17614e-05
-7.81521e-06
4.72281e-07
-2.66554e-05
-1.65141e-07
-3.54569e-05
-5.65146e-06
-2.22643e-13
1.6201e-05
-8.55919e-06
-5.61441e-13
1.8289e-05
-9.52811e-06
-1.21019e-12
1.55337e-05
-9.51065e-06
-1.55757e-12
1.21775e-05
-9.15939e-06
-1.14698e-12
8.86077e-06
-8.96177e-06
-1.18373e-13
4.87792e-06
-9.26431e-06
2.84649e-13
-1.28024e-06
-9.72838e-06
-2.95042e-13
-1.18692e-05
-7.93304e-06
1.37821e-13
-2.7005e-05
3.26071e-13
-3.58568e-05
-5.65146e-06
3.84018e-07
1.6201e-05
-8.55919e-06
4.28504e-07
1.8289e-05
-9.52811e-06
2.03468e-07
1.55337e-05
-9.51065e-06
-1.09139e-07
1.21775e-05
-9.15939e-06
-4.51092e-07
8.86077e-06
-8.96177e-06
-7.91794e-07
4.87792e-06
-9.26431e-06
-1.04314e-06
-1.28024e-06
-9.72838e-06
-9.84698e-07
-1.18692e-05
-7.93304e-06
-4.7228e-07
-2.7005e-05
1.65142e-07
-3.58568e-05
-5.69133e-06
7.91409e-07
1.62439e-05
-8.60227e-06
8.30729e-07
1.82925e-05
-9.55605e-06
3.66787e-07
1.54663e-05
-9.52654e-06
-2.50704e-07
1.20526e-05
-9.17547e-06
-9.20418e-07
8.69944e-06
-8.97828e-06
-1.60058e-06
4.71807e-06
-9.2532e-06
-2.132e-06
-1.35624e-06
-9.6466e-06
-2.05204e-06
-1.17614e-05
-7.81521e-06
-1.0004e-06
-2.66554e-05
4.06627e-07
-3.54569e-05
-5.63353e-06
1.11869e-06
1.6209e-05
-8.40259e-06
1.06153e-06
1.80234e-05
-9.24871e-06
4.12868e-07
1.50553e-05
-9.20512e-06
-3.92853e-07
1.15915e-05
-8.94324e-06
-1.25815e-06
8.24933e-06
-8.91488e-06
-2.16118e-06
4.36763e-06
-9.35152e-06
-2.93475e-06
-1.4525e-06
-9.75998e-06
-2.92477e-06
-1.13912e-05
-7.81228e-06
-1.52143e-06
-2.56355e-05
6.35856e-07
-3.43232e-05
-5.05353e-06
9.67649e-07
1.54472e-05
-7.19762e-06
8.00652e-07
1.63649e-05
-7.70257e-06
2.55218e-07
1.3284e-05
-7.65232e-06
-3.67352e-07
1.00307e-05
-7.71171e-06
-1.01457e-06
7.04149e-06
-8.27545e-06
-1.72322e-06
3.67291e-06
-9.42202e-06
-2.40402e-06
-1.39336e-06
-1.02647e-05
-2.51041e-06
-1.01556e-05
-8.26005e-06
-1.48187e-06
-2.271e-05
5.01624e-07
-3.11502e-05
-2.98992e-06
1.08401e-05
-3.68278e-06
9.76223e-06
-3.62251e-06
7.39385e-06
-3.59711e-06
5.39462e-06
-4.05008e-06
3.79033e-06
-5.24545e-06
2.05082e-06
-7.16737e-06
-7.54454e-07
-8.6539e-06
-5.95231e-06
-7.31718e-06
-1.36721e-05
-2.01505e-05
-3.00294e-06
-1.57296e-06
1.5416e-05
-5.60018e-07
-1.30597e-06
8.62528e-06
2.54671e-06
-5.0397e-07
4.7911e-06
4.68062e-06
2.95924e-07
2.96479e-06
5.62614e-06
1.08299e-06
1.76182e-06
5.0919e-06
1.91404e-06
6.71017e-07
2.65316e-06
2.82107e-06
-1.13678e-06
-1.23949e-06
3.00181e-06
-5.06148e-06
-3.59919e-06
1.42242e-06
-1.27348e-05
-1.94067e-06
-2.1809e-05
-5.35931e-06
-1.63225e-06
2.08658e-05
-2.37683e-06
-1.62165e-06
1.36981e-05
2.19186e-06
-8.04058e-07
9.01544e-06
6.16038e-06
1.6407e-07
6.19407e-06
9.07978e-06
1.14459e-06
4.06049e-06
1.04758e-05
2.16568e-06
2.02521e-06
9.57739e-06
3.15962e-06
-8.33461e-07
6.03235e-06
3.20294e-06
-6.81165e-06
1.69474e-06
1.22437e-06
-1.81744e-05
-1.77609e-06
-2.962e-05
-5.98109e-06
-1.08486e-06
2.16427e-05
-3.12031e-06
-1.21281e-06
1.47538e-05
1.6412e-06
-6.89452e-07
1.01792e-05
6.14208e-06
7.07409e-09
7.2476e-06
9.88313e-06
7.37782e-07
4.91509e-06
1.23142e-05
1.49509e-06
2.60715e-06
1.23853e-05
2.18398e-06
-5.48008e-07
9.21896e-06
2.17721e-06
-7.19908e-06
3.54626e-06
8.34464e-07
-1.95729e-05
-1.01209e-06
-3.1541e-05
-5.97831e-06
-5.08604e-07
2.16459e-05
-3.12091e-06
-6.10743e-07
1.48331e-05
1.66821e-06
-3.72315e-07
1.036e-05
6.286e-06
-3.75697e-08
7.47942e-06
1.02403e-05
3.30599e-07
5.15234e-06